chemcompute.org
{'UTCtimestamp': '2022-10-31T07:19:04.269684', 'cluster': 'jetstream2', 'clusterJobNumber': '141915', 'status': 'RUNNING', 'nodeList': 'chemcompute-node-0'}
----- GAMESS execution script 'rungms' -----
This job is running on host chemcompute-node-0.novalocal
under operating system Linux at Mon Oct 31 07:19:07 UTC 2022
SLURM has assigned the following compute nodes to this run:
Available scratch disk space (Kbyte units) at beginning of the job is
Filesystem     1K-blocks     Used Available Use% Mounted on
/dev/sda1       62903276 11644788  51258488  19% /
GAMESS temporary binary files will be written to /scratch/141915
GAMESS supplementary output files will be written to /data/slurm/48/483993
Copying input file 483993.inp to your run's scratch directory...
The generated host list is
chemcompute-node-0.novalocal

 Distributed Data Interface kickoff program.
 Initiating 1 compute processes on 1 nodes to run the following command:
 /data/gamess-2019R1-avx2-ddi/gamess.00.x 483993 

          ******************************************************
          *         GAMESS VERSION = 30 JUN 2019 (R1)          *
          *             FROM IOWA STATE UNIVERSITY             *
          * M.W.SCHMIDT, K.K.BALDRIDGE, J.A.BOATZ, S.T.ELBERT, *
          *   M.S.GORDON, J.H.JENSEN, S.KOSEKI, N.MATSUNAGA,   *
          *          K.A.NGUYEN, S.J.SU, T.L.WINDUS,           *
          *       TOGETHER WITH M.DUPUIS, J.A.MONTGOMERY       *
          *         J.COMPUT.CHEM.  14, 1347-1363(1993)        *
          **************** 64 BIT INTEL VERSION ****************

  SINCE 1993, STUDENTS AND POSTDOCS WORKING AT IOWA STATE UNIVERSITY
  AND ALSO IN THEIR VARIOUS JOBS AFTER LEAVING ISU HAVE MADE IMPORTANT
  CONTRIBUTIONS TO THE CODE:
     IVANA ADAMOVIC, CHRISTINE AIKENS, YURI ALEXEEV, POOJA ARORA,
     ANDREY ASADCHEV, ROB BELL, PRADIPTA BANDYOPADHYAY, JONATHAN BENTZ,
     COLLEEN BERTONI, BRETT BODE, KURT BRORSEN, CALEB CARLIN, GALINA CHABAN,
     WEI CHEN, CHEOL HO CHOI, PAUL DAY, ALBERT DEFUSCO, NUWAN DESILVA,
     TIM DUDLEY, DMITRI FEDOROV, ALEX FINDLATER, GRAHAM FLETCHER, 
     MARK FREITAG, KURT GLAESEMANN, ANASTASIA GUNINA,
     DAN KEMP, GRANT MERRILL, NORIYUKI MINEZAWA, JONATHAN MULLIN,
     TAKESHI NAGATA, SEAN NEDD, HEATHER NETZLOFF, BOSILJKA NJEGIC, RYAN OLSON,
     MIKE PAK, BUU PHAM,
     SPENCER PRUITT, LUKE ROSKOP, JIM SHOEMAKER, LYUDMILA SLIPCHENKO,
     TONY SMITH, SAROM SOK LEANG, JIE SONG, TETSUYA TAKETSUGU, SIMON WEBB,
     PENG XU, SOOHAENG YOO, FEDERICO ZAHARIEV

  ADDITIONAL CODE HAS BEEN PROVIDED BY COLLABORATORS IN OTHER GROUPS:
     IOWA STATE UNIVERSITY:
          JOE IVANIC, AARON WEST, LAIMUTIS BYTAUTAS, KLAUS RUEDENBERG
     UNIVERSITY OF TOKYO: KIMIHIKO HIRAO, TAKAHITO NAKAJIMA,
          TAKAO TSUNEDA, MUNEAKI KAMIYA, SUSUMU YANAGISAWA,
          KIYOSHI YAGI, MAHITO CHIBA, SEIKEN TOKURA, NAOAKI KAWAKAMI
     UNIVERSITY OF AARHUS: FRANK JENSEN
     UNIVERSITY OF IOWA: VISVALDAS KAIRYS, HUI LI
     NATIONAL INST. OF STANDARDS AND TECHNOLOGY: WALT STEVENS, DAVID GARMER
     UNIVERSITY OF PISA: BENEDETTA MENNUCCI, JACOPO TOMASI
     UNIVERSITY OF MEMPHIS: HENRY KURTZ, PRAKASHAN KORAMBATH
     UNIVERSITY OF ALBERTA: TOBY ZENG, MARIUSZ KLOBUKOWSKI
     UNIVERSITY OF NEW ENGLAND: MARK SPACKMAN
     MIE UNIVERSITY: HIROAKI UMEDA
     NAT. INST. OF ADVANCED INDUSTRIAL SCIENCE AND TECHNOLOGY: KAZUO KITAURA
     MICHIGAN STATE UNIVERSITY:
          KAROL KOWALSKI, MARTA WLOCH, JEFFREY GOUR, JESSE LUTZ,
          WEI LI, JUN SHEN, J. EMILIANO DEUSTUA, PIOTR PIECUCH
     UNIVERSITY OF MINNESOTA:
          YINAN SHU
     UNIVERSITY OF SILESIA: MONIKA MUSIAL, STANISLAW KUCHARSKI
     FACULTES UNIVERSITAIRES NOTRE-DAME DE LA PAIX:
          OLIVIER QUINET, BENOIT CHAMPAGNE
     UNIVERSITY OF CALIFORNIA - SANTA BARBARA: BERNARD KIRTMAN
     INSTITUTE FOR MOLECULAR SCIENCE:
          KAZUYA ISHIMURA, MICHIO KATOUDA, AND SHIGERU NAGASE
     UNIVERSITY OF NOTRE DAME: ANNA POMOGAEVA, DAN CHIPMAN
     KYUSHU UNIVERSITY:
          HARUYUKI NAKANO,
          FENG LONG GU, JACEK KORCHOWIEC, MARCIN MAKOWSKI, AND YURIKO AOKI,
          HIROTOSHI MORI AND EISAKU MIYOSHI
     PENNSYLVANIA STATE UNIVERSITY:
          TZVETELIN IORDANOV, CHET SWALINA, JONATHAN SKONE,
          SHARON HAMMES-SCHIFFER
     WASEDA UNIVERSITY:
          MASATO KOBAYASHI, TOMOKO AKAMA, TSUGUKI TOUMA,
          TAKESHI YOSHIKAWA, YASUHIRO IKABATA, JUNJI SEINO,
          YUYA NAKAJIMA, HIROMI NAKAI
     NANJING UNIVERSITY: SHUHUA LI
     UNIVERSITY OF NEBRASKA:
          PEIFENG SU, DEJUN SI, NANDUN THELLAMUREGE, YALI WANG, HUI LI
     UNIVERSITY OF ZURICH: ROBERTO PEVERATI, KIM BALDRIDGE
     N. COPERNICUS UNIVERSITY AND JACKSON STATE UNIVERSITY:
          MARIA BARYSZ
     UNIVERSITY OF COPENHAGEN: Jimmy Kromann, CASPER STEINMANN
     TOKYO INSTITUTE OF TECHNOLOGY: HIROYA NAKATA
     NAGOYA UNIVERSITY: YOSHIO NISHIMOTO, STEPHAN IRLE
     MOSCOW STATE UNIVERSITY: VLADIMIR MIRONOV
     A.N.NESMEYANOV INSTITUTE OF ORGANOELEMENT COMPOUNDS OF RUSSIAN ACADEMY OF SCIENCES:
          IGOR S. GERASIMOV

 EXECUTION OF GAMESS BEGUN Mon Oct 31 07:19:08 2022

            ECHO OF THE FIRST FEW INPUT CARDS -
 INPUT CARD>!                                                                               
 INPUT CARD>!   GAMESS Calculation input file                                               
 INPUT CARD>!                                                                               
 INPUT CARD>!                                                                               
 INPUT CARD> $CONTRL SCFTYP=RHF MAXIT=200 RUNTYP=OPTIMIZE                                   
 INPUT CARD>         COORD=UNIQUE MULT=1                                                    
 INPUT CARD>         ICHARG=0                                                               
 INPUT CARD>         DFTTYP=B3LYP                                                           
 INPUT CARD>         MOLPLT=.FALSE. PLTORB=.FALSE.  $END                                    
 INPUT CARD> $SYSTEM TIMLIM=2879 MWORDS=250  $END                                           
 INPUT CARD>                                                                                
 INPUT CARD> $FORCE METHOD=SEMINUM NVIB=2 $END                                              
 INPUT CARD> $STATPT OPTTOL=0.0005 NSTEP=999 $END                                           
 INPUT CARD> $STATPT IHREP=0 HSSEND=.TRUE.  $END                                            
 INPUT CARD>                                                                                
 INPUT CARD> $DFT    METHOD=GRID  NLEB=590  $END                                            
 INPUT CARD>                                                                                
 INPUT CARD> $BASIS  GBASIS=N31 NGAUSS=6                                                    
 INPUT CARD>         NDFUNC=1   NPFUNC=0  $END                                              
 INPUT CARD>                                                                                
 INPUT CARD> $SCF    DIRSCF=.T. $END                                                        
 INPUT CARD> $GUESS  GUESS=HUCKEL  $END                                                     
 INPUT CARD>                                                                                
 INPUT CARD> $DATA                                                                          
 INPUT CARD>                                                                                
 INPUT CARD>  Cs                                                                            
 INPUT CARD>                                                                                
 INPUT CARD>C     6.0     1.28    -1.66     0.00                                            
 INPUT CARD>C     6.0     0.54    -0.83     1.06                                            
 INPUT CARD>C     6.0     0.38     0.27     0.00                                            
 INPUT CARD>Cl   17.0    -1.10     1.23    -0.00                                            
 INPUT CARD>H     1.0     1.07    -2.73     0.00                                            
 INPUT CARD>H     1.0     2.36    -1.51     0.00                                            
 INPUT CARD>H     1.0     1.12    -0.56     1.94                                            
 INPUT CARD>H     1.0    -0.40    -1.29     1.39                                            
 INPUT CARD>H     1.0     1.23     0.95     0.00                                            
 INPUT CARD> $END                                                                           
 INPUT CARD>                                                                                
 INPUT CARD>                                                                                
 INPUT CARD>! Customizations after this line are persisted when using Do More Calculations  
  250000000 WORDS OF MEMORY AVAILABLE

     BASIS OPTIONS
     -------------
     GBASIS=N31          IGAUSS=       6      POLAR=POPN31  
     NDFUNC=       1     NFFUNC=       0     DIFFSP=       F
     NPFUNC=       0      DIFFS=       F     BASNAM=        


     RUN TITLE
     ---------
                                                                                 

 THE POINT GROUP OF THE MOLECULE IS CS      
 THE ORDER OF THE PRINCIPAL AXIS IS     0

 ATOM      ATOMIC                      COORDINATES (BOHR)
           CHARGE         X                   Y                   Z
 C           6.0     2.4188492643       -3.1369451396        0.0000000000
 C           6.0     1.0204520334       -1.5684725698       -2.0031095470
 C           6.0     1.0204520334       -1.5684725698        2.0031095470
 C           6.0     0.7180958753        0.5102260167        0.0000000000
 CL         17.0    -2.0786985865        2.3243629649        0.0000000000
 H           1.0     2.0220068069       -5.1589519465        0.0000000000
 H           1.0     4.4597533310       -2.8534862415        0.0000000000
 H           1.0     2.1164931062       -1.0582465531       -3.6660684162
 H           1.0     2.1164931062       -1.0582465531        3.6660684162
 H           1.0    -0.7558903951       -2.4377465242       -2.6267191229
 H           1.0    -0.7558903951       -2.4377465242        2.6267191229
 H           1.0     2.3243629649        1.7952396883        0.0000000000

          INTERNUCLEAR DISTANCES (ANGS.)
          ------------------------------

                1 C          2 C          3 C          4 C          5 CL    

   1 C       0.0000000    1.5362617 *  1.5362617 *  2.1295305 *  3.7438616  
   2 C       1.5362617 *  0.0000000    2.1200000 *  1.5359687 *  2.8384503 *
   3 C       1.5362617 *  2.1200000 *  0.0000000    1.5359687 *  2.8384503 *
   4 C       2.1295305 *  1.5359687 *  1.5359687 *  0.0000000    1.7640862 *
   5 CL      3.7438616    2.8384503 *  2.8384503 *  1.7640862 *  0.0000000  
   6 H       1.0904128 *  2.2393079 *  2.2393079 *  3.0783275    4.5155841  
   7 H       1.0903669 *  2.2132329 *  2.2132329 *  2.6624800 *  4.4135247  
   8 H       2.2358891 *  1.0879798 *  3.0674582    2.2360903 *  3.4490723  
   9 H       2.2358891 *  3.0674582    1.0879798 *  2.2360903 *  3.4490723  
  10 H       2.2116510 *  1.0973149 *  2.6641509 *  2.2302690 *  2.9618406 *
  11 H       2.2116510 *  2.6641509 *  1.0973149 *  2.2302690 *  2.9618406 *
  12 H       2.6104789 *  2.1835979 *  2.1835979 *  1.0885311 *  2.3467637 *

                6 H          7 H          8 H          9 H         10 H     

   1 C       1.0904128 *  1.0903669 *  2.2358891 *  2.2358891 *  2.2116510 *
   2 C       2.2393079 *  2.2132329 *  1.0879798 *  3.0674582    1.0973149 *
   3 C       2.2393079 *  2.2132329 *  3.0674582    1.0879798 *  2.6641509 *
   4 C       3.0783275    2.6624800 *  2.2360903 *  2.2360903 *  2.2302690 *
   5 CL      4.5155841    4.4135247    3.4490723    3.4490723    2.9618406 *
   6 H       0.0000000    1.7755281 *  2.9111853 *  2.9111853 *  2.4832640 *
   7 H       1.7755281 *  0.0000000    2.4907228 *  2.4907228 *  3.0980801  
   8 H       2.9111853 *  2.4907228 *  0.0000000    3.8800000    1.7736403 *
   9 H       2.9111853 *  2.4907228 *  3.8800000    0.0000000    3.7325862  
  10 H       2.4832640 *  3.0980801    1.7736403 *  3.7325862    0.0000000  
  11 H       2.4832640 *  3.0980801    3.7325862    1.7736403 *  2.7800000 *
  12 H       3.6834766    2.7071202 *  2.4608535 *  2.4608535 *  3.0994516  

               11 H         12 H     

   1 C       2.2116510 *  2.6104789 *
   2 C       2.6641509 *  2.1835979 *
   3 C       1.0973149 *  2.1835979 *
   4 C       2.2302690 *  1.0885311 *
   5 CL      2.9618406 *  2.3467637 *
   6 H       2.4832640 *  3.6834766  
   7 H       3.0980801    2.7071202 *
   8 H       3.7325862    2.4608535 *
   9 H       1.7736403 *  2.4608535 *
  10 H       2.7800000 *  3.0994516  
  11 H       0.0000000    3.0994516  
  12 H       3.0994516    0.0000000  

  * ... LESS THAN  3.000


     ATOMIC BASIS SET
     ----------------
 THE CONTRACTED PRIMITIVE FUNCTIONS HAVE BEEN UNNORMALIZED
 THE CONTRACTED BASIS FUNCTIONS ARE NOW NORMALIZED TO UNITY

  SHELL TYPE  PRIMITIVE        EXPONENT          CONTRACTION COEFFICIENT(S)

 C         

      1   S       1          3047.5248800    0.001834737132
      1   S       2           457.3695180    0.014037322813
      1   S       3           103.9486850    0.068842622264
      1   S       4            29.2101553    0.232184443216
      1   S       5             9.2866630    0.467941348435
      1   S       6             3.1639270    0.362311985337

      2   L       7             7.8682723   -0.119332419775    0.068999066591
      2   L       8             1.8812885   -0.160854151696    0.316423960957
      2   L       9             0.5442493    1.143456437840    0.744308290898

      3   L      10             0.1687145    1.000000000000    1.000000000000

      4   D      11             0.8000000    1.000000000000

 C         

      9   S      12          3047.5248800    0.001834737132
      9   S      13           457.3695180    0.014037322813
      9   S      14           103.9486850    0.068842622264
      9   S      15            29.2101553    0.232184443216
      9   S      16             9.2866630    0.467941348435
      9   S      17             3.1639270    0.362311985337

     10   L      18             7.8682723   -0.119332419775    0.068999066591
     10   L      19             1.8812885   -0.160854151696    0.316423960957
     10   L      20             0.5442493    1.143456437840    0.744308290898

     11   L      21             0.1687145    1.000000000000    1.000000000000

     12   D      22             0.8000000    1.000000000000

 C         

     13   S      23          3047.5248800    0.001834737132
     13   S      24           457.3695180    0.014037322813
     13   S      25           103.9486850    0.068842622264
     13   S      26            29.2101553    0.232184443216
     13   S      27             9.2866630    0.467941348435
     13   S      28             3.1639270    0.362311985337

     14   L      29             7.8682723   -0.119332419775    0.068999066591
     14   L      30             1.8812885   -0.160854151696    0.316423960957
     14   L      31             0.5442493    1.143456437840    0.744308290898

     15   L      32             0.1687145    1.000000000000    1.000000000000

     16   D      33             0.8000000    1.000000000000

 CL        

     17   S      34         25180.1000000    0.001832959848
     17   S      35          3780.3500000    0.014034198835
     17   S      36           860.4740000    0.069097394263
     17   S      37           242.1450000    0.237451980285
     17   S      38            77.3349000    0.483033959896
     17   S      39            26.2470000    0.339855971783

     18   L      40           491.7650000   -0.002297391417    0.003989400879
     18   L      41           116.9840000   -0.030713718938    0.030317706682
     18   L      42            37.4153000   -0.112528069386    0.129880028625
     18   L      43            13.7834000    0.045016327757    0.327951072278
     18   L      44             5.4521500    0.589353363399    0.453527099954
     18   L      45             2.2258800    0.465206286849    0.252154055573

     19   L      46             3.1864900   -0.251831288046   -0.014299314719
     19   L      47             1.1442700    0.061589315012    0.323572333073
     19   L      48             0.4203770    1.060185422549    0.743507765337

     20   L      49             0.1426570    1.000000000000    1.000000000000

     21   D      50             0.7500000    1.000000000000

 H         

     22   S      51            18.7311370    0.033494604338
     22   S      52             2.8253944    0.234726953484
     22   S      53             0.6401217    0.813757326146

     23   S      54             0.1612778    1.000000000000

 H         

     24   S      55            18.7311370    0.033494604338
     24   S      56             2.8253944    0.234726953484
     24   S      57             0.6401217    0.813757326146

     25   S      58             0.1612778    1.000000000000

 H         

     28   S      59            18.7311370    0.033494604338
     28   S      60             2.8253944    0.234726953484
     28   S      61             0.6401217    0.813757326146

     29   S      62             0.1612778    1.000000000000

 H         

     32   S      63            18.7311370    0.033494604338
     32   S      64             2.8253944    0.234726953484
     32   S      65             0.6401217    0.813757326146

     33   S      66             0.1612778    1.000000000000

 H         

     34   S      67            18.7311370    0.033494604338
     34   S      68             2.8253944    0.234726953484
     34   S      69             0.6401217    0.813757326146

     35   S      70             0.1612778    1.000000000000

 TOTAL NUMBER OF BASIS SET SHELLS             =   35
 NUMBER OF CARTESIAN GAUSSIAN BASIS FUNCTIONS =   93
 NUMBER OF ELECTRONS                          =   48
 CHARGE OF MOLECULE                           =    0
 SPIN MULTIPLICITY                            =    1
 NUMBER OF OCCUPIED ORBITALS (ALPHA)          =   24
 NUMBER OF OCCUPIED ORBITALS (BETA )          =   24
 TOTAL NUMBER OF ATOMS                        =   12
 THE NUCLEAR REPULSION ENERGY IS      222.1814088830

 SELECTED MURRAY-HANDY-LAMING RADIAL GRID

 LEGACY BECKE'S FUZZY CELL METHOD

 SELECTED ORIGINAL BECKE'S PARTITION FUNCTION

     LEBEDEV GRID-BASED DFT OPTIONS
     ------------------------------
     DFTTYP=B3LYP   
     NRAD  =      96     NLEB  =     590
     NRAD0 =      24     NLEB0 =     110
     SWOFF =    5.00E-03 (PURE SCF -> DFT)
     SWITCH=    3.00E-04 (COARSE -> TIGHT GRID)
     THRESH=    0.00E+00 GTHRE=    1.00E+00

 GRIMME'S EMPIRICAL DISPERSION CORRECTION= F

     $CONTRL OPTIONS
     ---------------
 SCFTYP=RHF          RUNTYP=OPTIMIZE     EXETYP=RUN     
 MPLEVL=       0     CITYP =NONE         CCTYP =NONE         VBTYP =NONE    
 DFTTYP=B3LYP        TDDFT =NONE    
 MULT  =       1     ICHARG=       0     NZVAR =       0     COORD =UNIQUE  
 PP    =NONE         RELWFN=NONE         LOCAL =NONE         NUMGRD=       F
 ISPHER=      -1     NOSYM =       0     MAXIT =     200     UNITS =ANGS    
 PLTORB=       F     MOLPLT=       F     AIMPAC=       F     FRIEND=        
 NPRINT=       7     IREST =       0     GEOM  =INPUT   
 NORMF =       0     NORMP =       0     ITOL  =      20     ICUT  =       9
 INTTYP=BEST         GRDTYP=BEST         QMTTOL= 1.0E-06

     $SYSTEM OPTIONS
     ---------------
  REPLICATED MEMORY=   250000000 WORDS (ON EVERY NODE).
 DISTRIBUTED MEMDDI=           0 MILLION WORDS IN AGGREGATE,
 MEMDDI DISTRIBUTED OVER   1 PROCESSORS IS           0 WORDS/PROCESSOR.
 TOTAL MEMORY REQUESTED ON EACH PROCESSOR=   250000000 WORDS.
 TIMLIM=        2879.00 MINUTES, OR       2.0 DAYS.
 PARALL= F  BALTYP=  DLB     KDIAG=    0  COREFL= F
 MXSEQ2=     300 MXSEQ3=     150  mem10=         0

          ----------------
          PROPERTIES INPUT
          ----------------

     MOMENTS            FIELD           POTENTIAL          DENSITY
 IEMOM =       1   IEFLD =       0   IEPOT =       0   IEDEN =       0
 WHERE =COMASS     WHERE =NUCLEI     WHERE =NUCLEI     WHERE =NUCLEI  
 OUTPUT=BOTH       OUTPUT=BOTH       OUTPUT=BOTH       OUTPUT=BOTH    
 IEMINT=       0   IEFINT=       0                     IEDINT=       0
                                                       MORB  =       0
          EXTRAPOLATION IN EFFECT
          DIIS IN EFFECT
 ORBITAL PRINTING OPTION: NPREO=     1    93     2     1

     -------------------------------
     INTEGRAL TRANSFORMATION OPTIONS
     -------------------------------
     NWORD  =            0
     CUTOFF = 1.0E-09     MPTRAN =       0
     DIRTRF =       T     AOINTS =DUP     

          ----------------------
          INTEGRAL INPUT OPTIONS
          ----------------------
 NOPK  =       1 NORDER=       0 SCHWRZ=       T

     ------------------------------------------
     THE POINT GROUP IS CS , NAXIS= 0, ORDER= 2
     ------------------------------------------

     DIMENSIONS OF THE SYMMETRY SUBSPACES ARE
 A'  =   61     A'' =   32

 ..... DONE SETTING UP THE RUN .....
 STEP CPU TIME =     0.01 TOTAL CPU TIME =          0.0 (      0.0 MIN)
 TOTAL WALL CLOCK TIME=          0.0 SECONDS, CPU UTILIZATION IS    50.00%


          -----------------------------
          STATIONARY POINT LOCATION RUN
          -----------------------------

 OBTAINING INITIAL HESSIAN, HESS=GUESS   
 CARTESIAN COORDINATE OPTIMIZATION USING BADGER'S RULE FORCE CONSTANT GUESS

          PARAMETERS CONTROLLING GEOMETRY SEARCH ARE
          METHOD =QA                  UPHESS =BFGS    
          NNEG   =         0          NFRZ   =         0
          NSTEP  =       999          IFOLOW =         1
          HESS   =GUESS               RESTAR =         F
          IHREP  =         0          HSSEND =         T
          NPRT   =         0          NPUN   =         0
          OPTTOL = 5.000E-04          RMIN   = 1.500E-03
          RMAX   = 1.000E-01          RLIM   = 7.000E-02
          DXMAX  = 3.000E-01          PURIFY =         F
          MOVIE  =         F          TRUPD  =         T
          TRMAX  = 5.000E-01          TRMIN  = 5.000E-02
          ITBMAT =         5          STPT   =         F
          STSTEP = 1.000E-02          PROJCT=          T

 BEGINNING GEOMETRY SEARCH POINT NSERCH=   0 ...

 COORDINATES OF SYMMETRY UNIQUE ATOMS (ANGS)
   ATOM   CHARGE       X              Y              Z
 ------------------------------------------------------------
 C           6.0   1.2800000000  -1.6600000000   0.0000000000
 C           6.0   0.5400000000  -0.8300000000   1.0600000000
 C           6.0   0.3800000000   0.2700000000   0.0000000000
 CL         17.0  -1.1000000000   1.2300000000   0.0000000000
 H           1.0   1.0700000000  -2.7300000000   0.0000000000
 H           1.0   2.3600000000  -1.5100000000   0.0000000000
 H           1.0   1.1200000000  -0.5600000000   1.9400000000
 H           1.0  -0.4000000000  -1.2900000000   1.3900000000
 H           1.0   1.2300000000   0.9500000000   0.0000000000
 COORDINATES OF ALL ATOMS ARE (ANGS)
   ATOM   CHARGE       X              Y              Z
 ------------------------------------------------------------
 C           6.0   1.2800000000  -1.6600000000   0.0000000000
 C           6.0   0.5400000000  -0.8300000000  -1.0600000000
 C           6.0   0.5400000000  -0.8300000000   1.0600000000
 C           6.0   0.3800000000   0.2700000000   0.0000000000
 CL         17.0  -1.1000000000   1.2300000000   0.0000000000
 H           1.0   1.0700000000  -2.7300000000   0.0000000000
 H           1.0   2.3600000000  -1.5100000000   0.0000000000
 H           1.0   1.1200000000  -0.5600000000  -1.9400000000
 H           1.0   1.1200000000  -0.5600000000   1.9400000000
 H           1.0  -0.4000000000  -1.2900000000  -1.3900000000
 H           1.0  -0.4000000000  -1.2900000000   1.3900000000
 H           1.0   1.2300000000   0.9500000000   0.0000000000

          ********************
          1 ELECTRON INTEGRALS
          ********************
 ...... END OF ONE-ELECTRON INTEGRALS ......
 STEP CPU TIME =     0.01 TOTAL CPU TIME =          0.0 (      0.0 MIN)
 TOTAL WALL CLOCK TIME=          0.0 SECONDS, CPU UTILIZATION IS    50.00%

          -------------
          GUESS OPTIONS
          -------------
          GUESS =HUCKEL            NORB  =       0          NORDER=       0
          MIX   =       F          PRTMO =       F          PUNMO =       F
          TOLZ  = 1.0E-08          TOLE  = 1.0E-05
          SYMDEN=       F          PURIFY=       F

 INITIAL GUESS ORBITALS GENERATED BY HUCKEL   ROUTINE.
 HUCKEL GUESS REQUIRES     77109 WORDS.

 SYMMETRIES FOR INITIAL GUESS ORBITALS FOLLOW.   BOTH SET(S).
    24 ORBITALS ARE OCCUPIED (    9 CORE ORBITALS).
    10=A'      11=A'      12=A''     13=A'      14=A'      15=A'      16=A'  
    17=A''     18=A''     19=A'      20=A'      21=A''     22=A'      23=A'  
    24=A''     25=A''     26=A'      27=A'      28=A''     29=A'      30=A'  
    31=A'      32=A'      33=A'      34=A'  
 ...... END OF INITIAL ORBITAL SELECTION ......
 STEP CPU TIME =     0.04 TOTAL CPU TIME =          0.1 (      0.0 MIN)
 TOTAL WALL CLOCK TIME=          0.1 SECONDS, CPU UTILIZATION IS    66.67%

                    ----------------------
                    AO INTEGRAL TECHNOLOGY
                    ----------------------
     S,P,L SHELL ROTATED AXIS INTEGRALS, REPROGRAMMED BY
        KAZUYA ISHIMURA (IMS) AND JOSE SIERRA (SYNSTAR).
     S,P,D,L SHELL ROTATED AXIS INTEGRALS PROGRAMMED BY
        KAZUYA ISHIMURA (INSTITUTE FOR MOLECULAR SCIENCE).
     S,P,D,F,G SHELL TO TOTAL QUARTET ANGULAR MOMENTUM SUM 5,
        ERIC PROGRAM BY GRAHAM FLETCHER (ELORET AND NASA ADVANCED
        SUPERCOMPUTING DIVISION, AMES RESEARCH CENTER).
     S,P,D,F,G,L SHELL GENERAL RYS QUADRATURE PROGRAMMED BY
        MICHEL DUPUIS (PACIFIC NORTHWEST NATIONAL LABORATORY).

          --------------------
          2 ELECTRON INTEGRALS
          --------------------

 DIRECT SCF METHOD SKIPS INTEGRAL STORAGE ON DISK.
 DIRECT TRANSFORMATION SKIPS AO INTEGRAL STORAGE ON DISK.
  ...... END OF TWO-ELECTRON INTEGRALS .....
 STEP CPU TIME =     0.01 TOTAL CPU TIME =          0.1 (      0.0 MIN)
 TOTAL WALL CLOCK TIME=          0.1 SECONDS, CPU UTILIZATION IS    70.00%

          --------------------------
             R-B3LYP SCF CALCULATION
          --------------------------

     NUCLEAR ENERGY =       222.1814088830
     MAXIT =  200     NPUNCH=    2
     EXTRAP=T  DAMP=F  SHIFT=F  RSTRCT=F  DIIS=T  DEM=F  SOSCF=F
         DENSITY MATRIX CONVERGENCE THRESHOLD=  2.00E-05
     COARSE -> FINE DFT GRID SWITCH THRESHOLD=  3.00E-04 (SWITCH IN $DFT)
                   HF -> DFT SWITCH THRESHOLD=  5.00E-03 (SWOFF IN $DFT)
     MEMORY REQUIRED FOR RHF ITERS=    888385 WORDS.

 DIRECT SCF CALCULATION, SCHWRZ=T   FDIFF=T,  DIRTHR=  0.00E+00 NITDIR=10
 SCHWARZ INEQUALITY OVERHEAD:      4348 INTEGRALS, T=        0.00

 DFT CODE IS SWITCHING FROM THE FINE GRID NRAD= 96,  NLEB=  590
                      TO THE COARSE GRID NRAD0= 24, NLEB0=  110

     EXCHANGE FUNCTIONAL   =B88&HFX   
     CORRELATION FUNCTIONAL=LYP88&VWN5
     DFT THRESHOLD         =.589E-08
     GRID CHANGE THRESHOLD =.300E-03
 FOR AN EULER-MACLAURIN QUADRATURE USING  96 RADIAL POINTS:
 SMALLEST GAUSSIAN PRIMITIVE EXPONENT=        0.1426570000 OF TYPE -P-
 ON ATOM NUMBER   5 HAS RADIAL NORMALIZATION=  1.000000
  LARGEST GAUSSIAN PRIMITIVE EXPONENT=    25180.1000000000 OF TYPE -S-
 ON ATOM NUMBER   5 HAS RADIAL NORMALIZATION=  1.000000
 DFT IS SWITCHED OFF, PERFORMING PURE SCF UNTIL SWOFF THRESHOLD IS REACHED.

                                                                                   NONZERO     BLOCKS
 ITER EX DEM     TOTAL ENERGY        E CHANGE  DENSITY CHANGE    DIIS ERROR      INTEGRALS    SKIPPED
   1  0  0     -614.3516773690  -614.3516773690   0.190529856   2.048223774        4475789      11957
          * * *   INITIATING DIIS PROCEDURE   * * *
   2  1  0     -614.9424689386    -0.5907915696   0.105822925   0.092578309        4472306      12854
   3  2  0     -614.9850241881    -0.0425552495   0.040061366   0.048576217        4460093      13932
   4  3  0     -615.0008801707    -0.0158559826   0.014609926   0.005577642        4437288      15470
   5  4  0     -615.0015122294    -0.0006320587   0.003112106   0.001007946        4391654      17384
 CONVERGED TO SWOFF, SO DFT CALCULATION IS NOW SWITCHED ON.
          * * *   INITIATING DIIS PROCEDURE   * * *
   6  5  0     -616.6018020266    -1.6002897972   0.152093472   0.120589953        4477198      11966
   7  6  0     -616.6211733582    -0.0193713317   0.033563314   0.024243717        4457672      14064
   8  7  0     -616.6198326646     0.0013406937   0.020701992   0.028531752        4430885      15454
   9  8  0     -616.6243438126    -0.0045111480   0.005982866   0.002008291        4414390      16345
  10  9  0     -616.6243768823    -0.0000330698   0.000821289   0.000376330        4308218      20767
  11 10  0     -616.6243786964    -0.0000018140   0.000266361   0.000170482        4203392      23559
 DFT CODE IS SWITCHING BACK TO THE FINE GRID
          * * *   INITIATING DIIS PROCEDURE   * * *
  12 11  0     -616.6319068590    -0.0075281627   0.004912302   0.001173496        4477802      11881
  13 12  0     -616.6319205024    -0.0000136434   0.001656820   0.000401714        4329759      19762
  14 13  0     -616.6319201665     0.0000003360   0.000785702   0.000520836        4247516      22250
  15 14  0     -616.6319225357    -0.0000023692   0.000103846   0.000032757        4204623      23664
  16 15  0     -616.6319225479    -0.0000000123   0.000018883   0.000009812        4001627      29938
  17 16  0     -616.6319225489    -0.0000000010   0.000004179   0.000003643        3828081      35108

          -----------------
          DENSITY CONVERGED
          -----------------
     TIME TO FORM FOCK OPERATORS=      13.1 SECONDS (       0.8 SEC/ITER)
     FOCK TIME ON FIRST ITERATION=       0.2, LAST ITERATION=       1.8
     TIME TO SOLVE SCF EQUATIONS=       0.1 SECONDS (       0.0 SEC/ITER)

 FINAL R-B3LYP ENERGY IS     -616.6319225489 AFTER  17 ITERATIONS
 DFT EXCHANGE + CORRELATION ENERGY =       -42.2833623104
 TOTAL ELECTRON NUMBER             =        47.9999774501

          ------------
          EIGENVECTORS
          ------------

                      1          2          3          4          5
                 -101.5234   -10.2400   -10.1891   -10.1891   -10.1871
                     A'         A'         A'         A''        A'  
    1  C  1  S   -0.000002   0.000055   0.072490   0.000000   0.990364
    2  C  1  S   -0.000007   0.000053   0.003297   0.000000   0.050177
    3  C  1  X    0.000001  -0.000025   0.000086   0.000000  -0.000125
    4  C  1  Y   -0.000003  -0.000015  -0.000010   0.000000   0.000303
    5  C  1  Z    0.000000   0.000000   0.000000   0.000076   0.000000
    6  C  1  S    0.000082  -0.002020   0.006653   0.000000  -0.020355
    7  C  1  X   -0.000047   0.001029  -0.001679   0.000000   0.001528
    8  C  1  Y    0.000046  -0.000174   0.001402   0.000000  -0.002311
    9  C  1  Z    0.000000   0.000000   0.000000  -0.002245   0.000000
   10  C  1 XX    0.000001   0.000000  -0.000959   0.000000  -0.008873
   11  C  1 YY   -0.000007   0.000156  -0.001057   0.000000  -0.008831
   12  C  1 ZZ   -0.000003  -0.000021  -0.001092   0.000000  -0.009066
   13  C  1 XY   -0.000003  -0.000003   0.000247   0.000000   0.000066
   14  C  1 XZ    0.000000   0.000000   0.000000  -0.000122   0.000000
   15  C  1 YZ    0.000000   0.000000   0.000000   0.000172   0.000000
   16  C  2  S    0.000003   0.001838   0.700265   0.702164  -0.051527
   17  C  2  S    0.000043  -0.000326   0.035414   0.035630  -0.002882
   18  C  2  X    0.000008  -0.000012   0.000022  -0.000012  -0.000075
   19  C  2  Y   -0.000011  -0.000011   0.000026  -0.000003   0.000040
   20  C  2  Z   -0.000013  -0.000006   0.000225   0.000213  -0.000063
   21  C  2  S   -0.000251   0.006735  -0.014334  -0.013208   0.006920
   22  C  2  X    0.000024  -0.000359  -0.000560   0.000151   0.001279
   23  C  2  Y   -0.000089   0.001591  -0.000399   0.000078  -0.001156
   24  C  2  Z   -0.000094   0.001893  -0.001745  -0.001722   0.001683
   25  C  2 XX   -0.000011  -0.000161  -0.006310  -0.006309   0.000295
   26  C  2 YY   -0.000015  -0.000294  -0.006455  -0.006405   0.000217
   27  C  2 ZZ   -0.000007  -0.000375  -0.006238  -0.006439   0.000066
   28  C  2 XY    0.000014   0.000025   0.000112   0.000065   0.000085
   29  C  2 XZ    0.000013  -0.000007  -0.000084  -0.000012  -0.000133
   30  C  2 YZ   -0.000010  -0.000125  -0.000026  -0.000002   0.000104
   31  C  3  S    0.000003   0.001838   0.700265  -0.702164  -0.051527
   32  C  3  S    0.000043  -0.000326   0.035414  -0.035630  -0.002882
   33  C  3  X    0.000008  -0.000012   0.000022   0.000012  -0.000075
   34  C  3  Y   -0.000011  -0.000011   0.000026   0.000003   0.000040
   35  C  3  Z    0.000013   0.000006  -0.000225   0.000213   0.000063
   36  C  3  S   -0.000251   0.006735  -0.014334   0.013208   0.006920
   37  C  3  X    0.000024  -0.000359  -0.000560  -0.000151   0.001279
   38  C  3  Y   -0.000089   0.001591  -0.000399  -0.000078  -0.001156
   39  C  3  Z    0.000094  -0.001893   0.001745  -0.001722  -0.001683
   40  C  3 XX   -0.000011  -0.000161  -0.006310   0.006309   0.000295
   41  C  3 YY   -0.000015  -0.000294  -0.006455   0.006405   0.000217
   42  C  3 ZZ   -0.000007  -0.000375  -0.006238   0.006439   0.000066
   43  C  3 XY    0.000014   0.000025   0.000112  -0.000065   0.000085
   44  C  3 XZ   -0.000013   0.000007   0.000084  -0.000012   0.000133
   45  C  3 YZ    0.000010   0.000125   0.000026  -0.000002  -0.000104
   46  C  4  S   -0.000017   0.993150  -0.003009   0.000000   0.000197
   47  C  4  S    0.000020   0.050079  -0.000513   0.000000   0.000020
   48  C  4  X   -0.000049  -0.000495   0.000078   0.000000  -0.000069
   49  C  4  Y    0.000041   0.000146   0.000094   0.000000  -0.000028
   50  C  4  Z    0.000000   0.000000   0.000000   0.000107   0.000000
   51  C  4  S    0.000467  -0.021068   0.007895   0.000000  -0.001967
   52  C  4  X   -0.000007   0.000547   0.000164   0.000000   0.000790
   53  C  4  Y   -0.000168   0.002516  -0.002547   0.000000   0.000514
   54  C  4  Z    0.000000   0.000000   0.000000  -0.002349   0.000000
   55  C  4 XX   -0.000074  -0.008692  -0.000178   0.000000   0.000099
   56  C  4 YY   -0.000032  -0.008784  -0.000544   0.000000   0.000156
   57  C  4 ZZ   -0.000023  -0.008870  -0.000412   0.000000   0.000008
   58  C  4 XY    0.000029   0.000090   0.000107   0.000000  -0.000091
   59  C  4 XZ    0.000000   0.000000   0.000000   0.000067   0.000000
   60  C  4 YZ    0.000000   0.000000   0.000000  -0.000206   0.000000
   61  CL 5  S    0.995998  -0.000011   0.000000   0.000000  -0.000001
   62  CL 5  S    0.015169  -0.000018  -0.000045   0.000000  -0.000017
   63  CL 5  X    0.000043  -0.000001   0.000029   0.000000  -0.000008
   64  CL 5  Y   -0.000029   0.000014  -0.000038   0.000000   0.000012
   65  CL 5  Z    0.000000   0.000000   0.000000  -0.000014   0.000000
   66  CL 5  S   -0.021036   0.000121  -0.000022   0.000000  -0.000072
   67  CL 5  X   -0.000038   0.000188  -0.000197   0.000000   0.000055
   68  CL 5  Y    0.000035  -0.000184   0.000238   0.000000  -0.000073
   69  CL 5  Z    0.000000   0.000000   0.000000   0.000086   0.000000
   70  CL 5  S    0.001567   0.003004   0.000008   0.000000   0.000693
   71  CL 5  X    0.000019   0.001373   0.000083   0.000000   0.000303
   72  CL 5  Y   -0.000003  -0.001279  -0.000019   0.000000  -0.000288
   73  CL 5  Z    0.000000   0.000000   0.000000   0.000065   0.000000
   74  CL 5 XX    0.007559  -0.000283  -0.000135   0.000000  -0.000005
   75  CL 5 YY    0.007553  -0.000060  -0.000167   0.000000   0.000016
   76  CL 5 ZZ    0.007563  -0.000147  -0.000088   0.000000  -0.000026
   77  CL 5 XY    0.000010  -0.000039   0.000051   0.000000  -0.000066
   78  CL 5 XZ    0.000000   0.000000   0.000000   0.000067   0.000000
   79  CL 5 YZ    0.000000   0.000000   0.000000   0.000028   0.000000
   80  H  6  S   -0.000001   0.000060  -0.000329   0.000000  -0.000020
   81  H  6  S    0.000005   0.000440  -0.000190   0.000000   0.002468
   82  H  7  S   -0.000003  -0.000003  -0.000306   0.000000   0.000051
   83  H  7  S    0.000014  -0.000328   0.000279   0.000000   0.002830
   84  H  8  S    0.000015  -0.000229  -0.000026  -0.000048  -0.000233
   85  H  8  S   -0.000007  -0.000182   0.002068   0.001423  -0.000400
   86  H  9  S    0.000015  -0.000229  -0.000026   0.000048  -0.000233
   87  H  9  S   -0.000007  -0.000182   0.002068  -0.001423  -0.000400
   88  H 10  S    0.000018  -0.000260  -0.000019   0.000053  -0.000219
   89  H 10  S   -0.000036  -0.000237   0.001801   0.002122  -0.000142
   90  H 11  S    0.000018  -0.000260  -0.000019  -0.000053  -0.000219
   91  H 11  S   -0.000036  -0.000237   0.001801  -0.002122  -0.000142
   92  H 12  S   -0.000027   0.000038  -0.000291   0.000000  -0.000032
   93  H 12  S   -0.000054   0.002449   0.000107   0.000000  -0.000285

                      6          7          8          9         10
                   -9.4407    -7.2043    -7.1949    -7.1948    -0.8824
                     A'         A'         A''        A'         A'  
    1  C  1  S   -0.000009   0.000069   0.000000  -0.000052  -0.076793
    2  C  1  S   -0.000059   0.000361   0.000000  -0.000256   0.142650
    3  C  1  X   -0.000099  -0.000047   0.000000   0.000122  -0.039238
    4  C  1  Y   -0.000027   0.000003   0.000000   0.000112   0.056004
    5  C  1  Z    0.000000   0.000000   0.000004   0.000000   0.000000
    6  C  1  S   -0.000067  -0.002822   0.000000   0.002278   0.100709
    7  C  1  X    0.001088   0.002182   0.000000  -0.001842  -0.004601
    8  C  1  Y    0.000005  -0.001346   0.000000   0.000347   0.013189
    9  C  1  Z    0.000000   0.000000   0.000976   0.000000   0.000000
   10  C  1 XX   -0.000050  -0.000029   0.000000  -0.000031   0.000293
   11  C  1 YY   -0.000011   0.000006   0.000000   0.000003   0.004448
   12  C  1 ZZ    0.000053   0.000179   0.000000  -0.000123  -0.003023
   13  C  1 XY    0.000039   0.000140   0.000000  -0.000088  -0.006271
   14  C  1 XZ    0.000000   0.000000  -0.000090   0.000000   0.000000
   15  C  1 YZ    0.000000   0.000000   0.000055   0.000000   0.000000
   16  C  2  S   -0.000087  -0.000181   0.000038   0.000075  -0.086607
   17  C  2  S   -0.000484  -0.000933   0.000178   0.000392   0.163208
   18  C  2  X    0.000133   0.000186  -0.000035  -0.000057   0.005496
   19  C  2  Y   -0.000064   0.000021   0.000183   0.000007   0.017970
   20  C  2  Z    0.000050   0.000075  -0.000064   0.000081   0.070929
   21  C  2  S    0.003005   0.006236  -0.000432  -0.002684   0.101793
   22  C  2  X   -0.000974  -0.002201   0.000595   0.000841   0.000640
   23  C  2  Y    0.000992   0.000666  -0.001430  -0.000187  -0.001021
   24  C  2  Z    0.000980   0.001772   0.000394  -0.001645   0.007483
   25  C  2 XX   -0.000071  -0.000094   0.000025   0.000004  -0.003235
   26  C  2 YY   -0.000063  -0.000137   0.000011   0.000049  -0.002091
   27  C  2 ZZ   -0.000129  -0.000260   0.000118   0.000146   0.007583
   28  C  2 XY   -0.000070  -0.000222   0.000053   0.000129  -0.000029
   29  C  2 XZ   -0.000015  -0.000030   0.000097   0.000023   0.001384
   30  C  2 YZ    0.000161   0.000153  -0.000064  -0.000054   0.002755
   31  C  3  S   -0.000087  -0.000181  -0.000038   0.000075  -0.086607
   32  C  3  S   -0.000484  -0.000933  -0.000178   0.000392   0.163208
   33  C  3  X    0.000133   0.000186   0.000035  -0.000057   0.005496
   34  C  3  Y   -0.000064   0.000021  -0.000183   0.000007   0.017970
   35  C  3  Z   -0.000050  -0.000075  -0.000064  -0.000081  -0.070929
   36  C  3  S    0.003005   0.006236   0.000432  -0.002684   0.101793
   37  C  3  X   -0.000974  -0.002201  -0.000595   0.000841   0.000640
   38  C  3  Y    0.000992   0.000666   0.001430  -0.000187  -0.001021
   39  C  3  Z   -0.000980  -0.001772   0.000394   0.001645  -0.007483
   40  C  3 XX   -0.000071  -0.000094  -0.000025   0.000004  -0.003235
   41  C  3 YY   -0.000063  -0.000137  -0.000011   0.000049  -0.002091
   42  C  3 ZZ   -0.000129  -0.000260  -0.000118   0.000146   0.007583
   43  C  3 XY   -0.000070  -0.000222  -0.000053   0.000129  -0.000029
   44  C  3 XZ    0.000015   0.000030   0.000097  -0.000023  -0.001384
   45  C  3 YZ   -0.000161  -0.000153  -0.000064   0.000054  -0.002755
   46  C  4  S    0.000011   0.000210   0.000000  -0.000069  -0.124833
   47  C  4  S    0.000893   0.002472   0.000000  -0.000363   0.237503
   48  C  4  X    0.000371   0.000313   0.000000   0.000277  -0.017886
   49  C  4  Y   -0.000299  -0.000397   0.000000  -0.000057  -0.038588
   50  C  4  Z    0.000000   0.000000  -0.000087   0.000000   0.000000
   51  C  4  S   -0.002796  -0.007673   0.000000   0.002711   0.194341
   52  C  4  X   -0.000185   0.004430   0.000000  -0.001851  -0.008700
   53  C  4  Y    0.002287   0.001357   0.000000  -0.001635  -0.004553
   54  C  4  Z    0.000000   0.000000  -0.000632   0.000000   0.000000
   55  C  4 XX   -0.000488  -0.001300   0.000000   0.000133   0.001275
   56  C  4 YY   -0.000261  -0.000390   0.000000  -0.000285   0.006619
   57  C  4 ZZ    0.000007   0.000370   0.000000  -0.000045  -0.007430
   58  C  4 XY    0.000507   0.001344   0.000000   0.000099  -0.007071
   59  C  4 XZ    0.000000   0.000000   0.000356   0.000000   0.000000
   60  C  4 YZ    0.000000   0.000000  -0.000082   0.000000   0.000000
   61  CL 5  S   -0.284654   0.001641   0.000000  -0.000005   0.038439
   62  CL 5  S    1.022202  -0.006011   0.000000  -0.000000  -0.172783
   63  CL 5  X    0.004580   0.841385   0.000000   0.522951  -0.029557
   64  CL 5  Y   -0.002814  -0.522531   0.000000   0.841867   0.020969
   65  CL 5  Z    0.000000   0.000000   0.991076   0.000000   0.000000
   66  CL 5  S    0.074221  -0.000121   0.000000  -0.000009   0.339724
   67  CL 5  X    0.001043   0.025988   0.000000   0.014747   0.069137
   68  CL 5  Y   -0.000822  -0.016410   0.000000   0.024288  -0.048903
   69  CL 5  Z    0.000000   0.000000   0.028382   0.000000   0.000000
   70  CL 5  S   -0.013342   0.002197   0.000000  -0.000554   0.105085
   71  CL 5  X   -0.001497  -0.006016   0.000000  -0.004306  -0.000406
   72  CL 5  Y    0.000944   0.003541   0.000000  -0.006406   0.000632
   73  CL 5  Z    0.000000   0.000000  -0.007941   0.000000   0.000000
   74  CL 5 XX   -0.016162   0.001138   0.000000   0.000223   0.010947
   75  CL 5 YY   -0.016357   0.000523   0.000000  -0.000450  -0.000423
   76  CL 5 ZZ   -0.016620  -0.000192   0.000000  -0.000031  -0.010575
   77  CL 5 XY   -0.000403  -0.001116   0.000000   0.000277  -0.016780
   78  CL 5 XZ    0.000000   0.000000   0.000335   0.000000   0.000000
   79  CL 5 YZ    0.000000   0.000000  -0.000175   0.000000   0.000000
   80  H  6  S    0.000050   0.000108   0.000000  -0.000183   0.027796
   81  H  6  S    0.000144  -0.000079   0.000000  -0.000260   0.003537
   82  H  7  S   -0.000079   0.000046   0.000000   0.000087   0.031911
   83  H  7  S   -0.000586  -0.000698   0.000000   0.000553   0.001529
   84  H  8  S   -0.000030  -0.000057   0.000130  -0.000063   0.032627
   85  H  8  S    0.000015   0.000228   0.000214  -0.000413   0.002049
   86  H  9  S   -0.000030  -0.000057  -0.000130  -0.000063   0.032627
   87  H  9  S    0.000015   0.000228  -0.000214  -0.000413   0.002049
   88  H 10  S   -0.000387  -0.000497   0.000184   0.000426   0.037064
   89  H 10  S    0.000148  -0.001026  -0.000410  -0.000522   0.002740
   90  H 11  S   -0.000387  -0.000497  -0.000184   0.000426   0.037064
   91  H 11  S    0.000148  -0.001026   0.000410  -0.000522   0.002740
   92  H 12  S   -0.000111  -0.000083   0.000000  -0.000039   0.056522
   93  H 12  S    0.000531  -0.000192   0.000000   0.002038   0.002222

                     11         12         13         14         15
                   -0.8096    -0.6673    -0.6434    -0.5610    -0.4938
                     A'         A''        A'         A'         A'  
    1  C  1  S    0.088159   0.000000  -0.139080  -0.071406  -0.012551
    2  C  1  S   -0.168143   0.000000   0.273250   0.142876   0.031928
    3  C  1  X    0.031632   0.000000   0.036466   0.131439  -0.152534
    4  C  1  Y   -0.044721   0.000000  -0.071986  -0.023032   0.060173
    5  C  1  Z    0.000000  -0.125389   0.000000   0.000000   0.000000
    6  C  1  S   -0.127298   0.000000   0.276742   0.162823   0.019370
    7  C  1  X    0.002874   0.000000   0.009463   0.047757  -0.046044
    8  C  1  Y   -0.007203   0.000000  -0.019078   0.002345   0.012228
    9  C  1  Z    0.000000  -0.028251   0.000000   0.000000   0.000000
   10  C  1 XX   -0.000362   0.000000   0.003052   0.001930  -0.000686
   11  C  1 YY   -0.003246   0.000000  -0.000534   0.004450   0.005171
   12  C  1 ZZ    0.003540   0.000000  -0.008158  -0.012352  -0.009158
   13  C  1 XY    0.004048   0.000000   0.005870   0.006353  -0.009927
   14  C  1 XZ    0.000000   0.009763   0.000000   0.000000   0.000000
   15  C  1 YZ    0.000000  -0.011717   0.000000   0.000000   0.000000
   16  C  2  S    0.064695  -0.140783   0.012992   0.073799   0.032212
   17  C  2  S   -0.122633   0.275626  -0.027071  -0.147539  -0.061443
   18  C  2  X   -0.025805   0.000107   0.042044   0.107634  -0.077939
   19  C  2  Y    0.023138   0.003046  -0.118183   0.049718  -0.022816
   20  C  2  Z   -0.049179  -0.048788  -0.008058   0.086419   0.269582
   21  C  2  S   -0.098829   0.271723  -0.020838  -0.171015  -0.078153
   22  C  2  X   -0.000203   0.000357   0.009750   0.042625  -0.039406
   23  C  2  Y    0.003520  -0.000206  -0.027114   0.018431  -0.013345
   24  C  2  Z   -0.009658  -0.009526   0.000391   0.024522   0.102192
   25  C  2 XX    0.001958   0.002115   0.003694  -0.003895  -0.006996
   26  C  2 YY    0.004453  -0.005088  -0.000776   0.008773   0.000230
   27  C  2 ZZ   -0.005705  -0.002363  -0.001448   0.000817   0.006435
   28  C  2 XY   -0.000828   0.005551  -0.004244  -0.007827  -0.006113
   29  C  2 XZ   -0.003270  -0.001397   0.005537   0.005070   0.005294
   30  C  2 YZ    0.003090  -0.000274  -0.012854   0.002045   0.003515
   31  C  3  S    0.064695   0.140783   0.012992   0.073799   0.032212
   32  C  3  S   -0.122633  -0.275626  -0.027071  -0.147539  -0.061443
   33  C  3  X   -0.025805  -0.000107   0.042044   0.107634  -0.077939
   34  C  3  Y    0.023138  -0.003046  -0.118183   0.049718  -0.022816
   35  C  3  Z    0.049179  -0.048788   0.008058  -0.086419  -0.269582
   36  C  3  S   -0.098829  -0.271723  -0.020838  -0.171015  -0.078153
   37  C  3  X   -0.000203  -0.000357   0.009750   0.042625  -0.039406
   38  C  3  Y    0.003520   0.000206  -0.027114   0.018431  -0.013345
   39  C  3  Z    0.009658  -0.009526  -0.000391  -0.024522  -0.102192
   40  C  3 XX    0.001958  -0.002115   0.003694  -0.003895  -0.006996
   41  C  3 YY    0.004453   0.005088  -0.000776   0.008773   0.000230
   42  C  3 ZZ   -0.005705   0.002363  -0.001448   0.000817   0.006435
   43  C  3 XY   -0.000828  -0.005551  -0.004244  -0.007827  -0.006113
   44  C  3 XZ    0.003270  -0.001397  -0.005537  -0.005070  -0.005294
   45  C  3 YZ   -0.003090  -0.000274   0.012854  -0.002045  -0.003515
   46  C  4  S   -0.010848   0.000000   0.120791  -0.075104  -0.017428
   47  C  4  S    0.019895   0.000000  -0.244571   0.155418   0.043169
   48  C  4  X   -0.093293   0.000000  -0.063437   0.123590  -0.093780
   49  C  4  Y    0.119881   0.000000   0.009574   0.135030  -0.198733
   50  C  4  Z    0.000000  -0.141807   0.000000   0.000000   0.000000
   51  C  4  S    0.043697   0.000000  -0.258949   0.184754   0.032343
   52  C  4  X   -0.031964   0.000000  -0.018679   0.051132  -0.041657
   53  C  4  Y    0.025744   0.000000   0.003224   0.050495  -0.067267
   54  C  4  Z    0.000000  -0.036563   0.000000   0.000000   0.000000
   55  C  4 XX    0.010423   0.000000   0.002235   0.007230  -0.005355
   56  C  4 YY   -0.004924   0.000000   0.001131  -0.000626   0.007688
   57  C  4 ZZ   -0.005482   0.000000   0.003793  -0.012861  -0.008234
   58  C  4 XY   -0.005766   0.000000  -0.007605   0.002554  -0.005834
   59  C  4 XZ    0.000000  -0.001706   0.000000   0.000000   0.000000
   60  C  4 YZ    0.000000   0.014959   0.000000   0.000000   0.000000
   61  CL 5  S    0.065116   0.000000   0.031477  -0.009920   0.000246
   62  CL 5  S   -0.293120   0.000000  -0.142271   0.045358  -0.000545
   63  CL 5  X   -0.026454   0.000000   0.035818  -0.040476   0.013368
   64  CL 5  Y    0.014646   0.000000  -0.021407  -0.000784   0.023958
   65  CL 5  Z    0.000000   0.011065   0.000000   0.000000   0.000000
   66  CL 5  S    0.587555   0.000000   0.296032  -0.094244   0.003828
   67  CL 5  X    0.063673   0.000000  -0.084190   0.098261  -0.032666
   68  CL 5  Y   -0.035312   0.000000   0.050330   0.001663  -0.059223
   69  CL 5  Z    0.000000  -0.026386   0.000000   0.000000   0.000000
   70  CL 5  S    0.217153   0.000000   0.161594  -0.066434  -0.007435
   71  CL 5  X    0.001505   0.000000  -0.012864   0.023898  -0.015244
   72  CL 5  Y   -0.000057   0.000000   0.006818   0.006207  -0.017715
   73  CL 5  Z    0.000000  -0.006772   0.000000   0.000000   0.000000
   74  CL 5 XX    0.008378   0.000000  -0.012389   0.017109  -0.007701
   75  CL 5 YY   -0.006197   0.000000  -0.003627  -0.005998   0.009629
   76  CL 5 ZZ   -0.013476   0.000000   0.000951  -0.003386  -0.000806
   77  CL 5 XY   -0.014478   0.000000   0.009018  -0.004239  -0.005273
   78  CL 5 XZ    0.000000  -0.004909   0.000000   0.000000   0.000000
   79  CL 5 YZ    0.000000   0.004387   0.000000   0.000000   0.000000
   80  H  6  S   -0.040204   0.000000   0.128645   0.059442  -0.002728
   81  H  6  S   -0.005808   0.000000   0.047960   0.031122  -0.008218
   82  H  7  S   -0.043919   0.000000   0.114532   0.121192  -0.067304
   83  H  7  S   -0.005710   0.000000   0.041131   0.059087  -0.057882
   84  H  8  S   -0.028041   0.116244  -0.009922  -0.062508  -0.169253
   85  H  8  S   -0.004300   0.039266  -0.002905  -0.030655  -0.106845
   86  H  9  S   -0.028041  -0.116244  -0.009922  -0.062508  -0.169253
   87  H  9  S   -0.004300  -0.039266  -0.002905  -0.030655  -0.106845
   88  H 10  S   -0.027975   0.105495  -0.002346  -0.128146  -0.034118
   89  H 10  S   -0.001069   0.033515   0.001857  -0.061160  -0.025106
   90  H 11  S   -0.027975  -0.105495  -0.002346  -0.128146  -0.034118
   91  H 11  S   -0.001069  -0.033515   0.001857  -0.061160  -0.025106
   92  H 12  S    0.006466   0.000000  -0.110265   0.152377  -0.093042
   93  H 12  S    0.001557   0.000000  -0.037686   0.070869  -0.070601

                     16         17         18         19         20
                   -0.4740    -0.4105    -0.3972    -0.3874    -0.3410
                     A'         A'         A''        A''        A'  
    1  C  1  S    0.021522   0.002230   0.000000   0.000000  -0.022966
    2  C  1  S   -0.042705  -0.001717   0.000000   0.000000   0.049253
    3  C  1  X    0.034546  -0.280192   0.000000   0.000000  -0.205341
    4  C  1  Y    0.271857  -0.098160   0.000000   0.000000   0.210103
    5  C  1  Z    0.000000   0.000000  -0.002251  -0.223014   0.000000
    6  C  1  S   -0.037953  -0.019677   0.000000   0.000000   0.102561
    7  C  1  X    0.020079  -0.128191   0.000000   0.000000  -0.096376
    8  C  1  Y    0.116884  -0.048332   0.000000   0.000000   0.114354
    9  C  1  Z    0.000000   0.000000  -0.002278  -0.105005   0.000000
   10  C  1 XX   -0.000464  -0.014629   0.000000   0.000000  -0.009704
   11  C  1 YY   -0.003450   0.009166   0.000000   0.000000  -0.008556
   12  C  1 ZZ    0.004073   0.003612   0.000000   0.000000   0.012881
   13  C  1 XY   -0.007429  -0.002268   0.000000   0.000000  -0.005991
   14  C  1 XZ    0.000000   0.000000  -0.008827   0.003305   0.000000
   15  C  1 YZ    0.000000   0.000000  -0.007350  -0.006231   0.000000
   16  C  2  S   -0.015729  -0.002099   0.004573  -0.002651  -0.009749
   17  C  2  S    0.037460   0.003437  -0.006727   0.005682   0.024338
   18  C  2  X    0.149607   0.000054   0.244064   0.191155   0.166432
   19  C  2  Y    0.057675  -0.092395   0.203158  -0.174583  -0.139517
   20  C  2  Z    0.060163   0.025021   0.009121  -0.059837   0.019171
   21  C  2  S    0.020830   0.021507  -0.028527   0.012467   0.036461
   22  C  2  X    0.055128  -0.004837   0.120179   0.101127   0.070364
   23  C  2  Y    0.026215  -0.040978   0.096397  -0.079940  -0.069975
   24  C  2  Z    0.007369   0.021114   0.006538  -0.023399   0.002775
   25  C  2 XX   -0.004388  -0.005403  -0.010145   0.000833  -0.003451
   26  C  2 YY   -0.008761   0.005404   0.002379  -0.005330  -0.003898
   27  C  2 ZZ    0.008917   0.000418   0.006150   0.005371   0.006289
   28  C  2 XY    0.000140   0.006615  -0.006974  -0.001976  -0.003901
   29  C  2 XZ    0.001833   0.003923  -0.011692  -0.002399   0.000859
   30  C  2 YZ   -0.000105  -0.004340  -0.002974  -0.009271  -0.013109
   31  C  3  S   -0.015729  -0.002099  -0.004573   0.002651  -0.009749
   32  C  3  S    0.037460   0.003437   0.006727  -0.005682   0.024338
   33  C  3  X    0.149607   0.000054  -0.244064  -0.191155   0.166432
   34  C  3  Y    0.057675  -0.092395  -0.203158   0.174583  -0.139517
   35  C  3  Z   -0.060163  -0.025021   0.009121  -0.059837  -0.019171
   36  C  3  S    0.020830   0.021507   0.028527  -0.012467   0.036461
   37  C  3  X    0.055128  -0.004837  -0.120179  -0.101127   0.070364
   38  C  3  Y    0.026215  -0.040978  -0.096397   0.079940  -0.069975
   39  C  3  Z   -0.007369  -0.021114   0.006538  -0.023399  -0.002775
   40  C  3 XX   -0.004388  -0.005403   0.010145  -0.000833  -0.003451
   41  C  3 YY   -0.008761   0.005404  -0.002379   0.005330  -0.003898
   42  C  3 ZZ    0.008917   0.000418  -0.006150  -0.005371   0.006289
   43  C  3 XY    0.000140   0.006615   0.006974   0.001976  -0.003901
   44  C  3 XZ   -0.001833  -0.003923  -0.011692  -0.002399  -0.000859
   45  C  3 YZ    0.000105   0.004340  -0.002974  -0.009271   0.013109
   46  C  4  S    0.042704   0.007675   0.000000   0.000000   0.035430
   47  C  4  S   -0.087180  -0.014501   0.000000   0.000000  -0.074471
   48  C  4  X    0.155647   0.278137   0.000000   0.000000  -0.153492
   49  C  4  Y   -0.164787   0.118416   0.000000   0.000000   0.166615
   50  C  4  Z    0.000000   0.000000  -0.179777   0.301391   0.000000
   51  C  4  S   -0.134809  -0.058236   0.000000   0.000000  -0.092773
   52  C  4  X    0.086527   0.145751   0.000000   0.000000  -0.074163
   53  C  4  Y   -0.079945   0.078835   0.000000   0.000000   0.120849
   54  C  4  Z    0.000000   0.000000  -0.096027   0.160856   0.000000
   55  C  4 XX   -0.006318  -0.002353   0.000000   0.000000   0.006840
   56  C  4 YY    0.003068   0.009008   0.000000   0.000000   0.013564
   57  C  4 ZZ    0.004324  -0.005343   0.000000   0.000000  -0.009034
   58  C  4 XY   -0.004359   0.016042   0.000000   0.000000  -0.024459
   59  C  4 XZ    0.000000   0.000000  -0.009094  -0.011533   0.000000
   60  C  4 YZ    0.000000   0.000000   0.001775  -0.004994   0.000000
   61  CL 5  S    0.020497   0.008367   0.000000   0.000000  -0.002349
   62  CL 5  S   -0.094525  -0.039991   0.000000   0.000000   0.015101
   63  CL 5  X    0.109672   0.055492   0.000000   0.000000  -0.174826
   64  CL 5  Y   -0.070543  -0.114809   0.000000   0.000000   0.004261
   65  CL 5  Z    0.000000   0.000000   0.031455  -0.117161   0.000000
   66  CL 5  S    0.196581   0.078259   0.000000   0.000000  -0.013693
   67  CL 5  X   -0.271263  -0.140743   0.000000   0.000000   0.447374
   68  CL 5  Y    0.174407   0.288130   0.000000   0.000000  -0.013814
   69  CL 5  Z    0.000000   0.000000  -0.079087   0.294485   0.000000
   70  CL 5  S    0.179467   0.097100   0.000000   0.000000  -0.087259
   71  CL 5  X   -0.067032  -0.036362   0.000000   0.000000   0.187649
   72  CL 5  Y    0.046017   0.106822   0.000000   0.000000   0.023886
   73  CL 5  Z    0.000000   0.000000  -0.030154   0.137679   0.000000
   74  CL 5 XX   -0.022876  -0.001466   0.000000   0.000000   0.025854
   75  CL 5 YY   -0.004068  -0.015804   0.000000   0.000000  -0.005243
   76  CL 5 ZZ    0.008778   0.005401   0.000000   0.000000  -0.006114
   77  CL 5 XY    0.022194   0.024384   0.000000   0.000000  -0.012656
   78  CL 5 XZ    0.000000   0.000000  -0.008916   0.020875   0.000000
   79  CL 5 YZ    0.000000   0.000000   0.002788  -0.015790   0.000000
   80  H  6  S   -0.170916   0.093979   0.000000   0.000000  -0.096094
   81  H  6  S   -0.114982   0.079148   0.000000   0.000000  -0.096851
   82  H  7  S    0.017474  -0.186052   0.000000   0.000000  -0.102752
   83  H  7  S    0.008945  -0.147355   0.000000   0.000000  -0.112768
   84  H  8  S    0.041145  -0.024179   0.108640   0.075088   0.042273
   85  H  8  S    0.021458  -0.016342   0.095024   0.063462   0.035746
   86  H  9  S    0.041145  -0.024179  -0.108640  -0.075088   0.042273
   87  H  9  S    0.021458  -0.016342  -0.095024  -0.063462   0.035746
   88  H 10  S   -0.080229   0.021796  -0.196612  -0.046585  -0.060175
   89  H 10  S   -0.062328   0.016894  -0.152036  -0.035319  -0.077252
   90  H 11  S   -0.080229   0.021796   0.196612   0.046585  -0.060175
   91  H 11  S   -0.062328   0.016894   0.152036   0.035319  -0.077252
   92  H 12  S   -0.033378   0.175825   0.000000   0.000000  -0.063915
   93  H 12  S   -0.018788   0.128219   0.000000   0.000000  -0.074167

                     21         22         23         24         25
                   -0.3360    -0.3198    -0.2810    -0.2786     0.0456
                     A'         A''        A'         A''        A'  
    1  C  1  S   -0.003580   0.000000   0.014733   0.000000  -0.029810
    2  C  1  S    0.005267   0.000000  -0.029555   0.000000   0.061413
    3  C  1  X    0.169787   0.000000   0.077484   0.000000  -0.028510
    4  C  1  Y    0.216848   0.000000  -0.114787   0.000000  -0.034295
    5  C  1  Z    0.000000   0.354729   0.000000   0.002696   0.000000
    6  C  1  S    0.004562   0.000000  -0.080301   0.000000   0.277715
    7  C  1  X    0.072275   0.000000   0.063395   0.000000   0.051710
    8  C  1  Y    0.115323   0.000000  -0.066497   0.000000  -0.198371
    9  C  1  Z    0.000000   0.185578   0.000000   0.032578   0.000000
   10  C  1 XX    0.021332   0.000000   0.002175   0.000000   0.008687
   11  C  1 YY   -0.022775   0.000000   0.010457   0.000000  -0.022487
   12  C  1 ZZ   -0.000439   0.000000  -0.007966   0.000000   0.008416
   13  C  1 XY   -0.000439   0.000000  -0.001218   0.000000  -0.003371
   14  C  1 XZ    0.000000  -0.011793   0.000000   0.002054   0.000000
   15  C  1 YZ    0.000000   0.012332   0.000000  -0.003606   0.000000
   16  C  2  S    0.001923   0.021690  -0.009779  -0.028395  -0.013965
   17  C  2  S   -0.007155  -0.047447   0.019485   0.056205   0.012027
   18  C  2  X   -0.160941  -0.065182  -0.053316  -0.057117  -0.040141
   19  C  2  Y   -0.151042   0.108753   0.140703   0.116859  -0.094354
   20  C  2  Z    0.020466  -0.282387   0.017923   0.151771  -0.031426
   21  C  2  S    0.001418  -0.083762   0.089950   0.158411   0.348924
   22  C  2  X   -0.076796  -0.032959  -0.044171  -0.013082  -0.132028
   23  C  2  Y   -0.068820   0.059151   0.068570   0.068661  -0.166054
   24  C  2  Z    0.028081  -0.145314   0.022819   0.100500  -0.003899
   25  C  2 XX    0.012239   0.001315  -0.003262  -0.003401  -0.005970
   26  C  2 YY   -0.003668  -0.008997  -0.000491   0.005614   0.005094
   27  C  2 ZZ   -0.008004   0.014095   0.003918  -0.007495   0.001466
   28  C  2 XY    0.005960   0.011164  -0.001279  -0.000778  -0.012653
   29  C  2 XZ    0.013596  -0.010129  -0.005622   0.003439  -0.012311
   30  C  2 YZ    0.002397  -0.001031   0.006741   0.005592  -0.004152
   31  C  3  S    0.001923  -0.021690  -0.009779   0.028395  -0.013965
   32  C  3  S   -0.007155   0.047447   0.019485  -0.056205   0.012027
   33  C  3  X   -0.160941   0.065182  -0.053316   0.057117  -0.040141
   34  C  3  Y   -0.151042  -0.108753   0.140703  -0.116859  -0.094354
   35  C  3  Z   -0.020466  -0.282387  -0.017923   0.151771   0.031426
   36  C  3  S    0.001418   0.083762   0.089950  -0.158411   0.348924
   37  C  3  X   -0.076796   0.032959  -0.044171   0.013082  -0.132028
   38  C  3  Y   -0.068820  -0.059151   0.068570  -0.068661  -0.166054
   39  C  3  Z   -0.028081  -0.145314  -0.022819   0.100500   0.003899
   40  C  3 XX    0.012239  -0.001315  -0.003262   0.003401  -0.005970
   41  C  3 YY   -0.003668   0.008997  -0.000491  -0.005614   0.005094
   42  C  3 ZZ   -0.008004  -0.014095   0.003918   0.007495   0.001466
   43  C  3 XY    0.005960  -0.011164  -0.001279   0.000778  -0.012653
   44  C  3 XZ   -0.013596  -0.010129   0.005622   0.003439   0.012311
   45  C  3 YZ   -0.002397  -0.001031  -0.006741   0.005592   0.004152
   46  C  4  S    0.018053   0.000000  -0.013354   0.000000  -0.093814
   47  C  4  S   -0.037235   0.000000   0.040795   0.000000   0.170221
   48  C  4  X    0.073217   0.000000  -0.070532   0.000000  -0.318690
   49  C  4  Y    0.144057   0.000000  -0.187407   0.000000   0.211552
   50  C  4  Z    0.000000   0.131383   0.000000  -0.220867   0.000000
   51  C  4  S   -0.098421   0.000000   0.024160   0.000000   0.931694
   52  C  4  X    0.035166   0.000000  -0.022239   0.000000  -0.535476
   53  C  4  Y    0.085282   0.000000  -0.023722   0.000000   0.461000
   54  C  4  Z    0.000000   0.073897   0.000000  -0.073793   0.000000
   55  C  4 XX    0.001830   0.000000  -0.021401   0.000000  -0.011238
   56  C  4 YY    0.010540   0.000000   0.007853   0.000000   0.001131
   57  C  4 ZZ   -0.008898   0.000000   0.011475   0.000000  -0.005702
   58  C  4 XY    0.009162   0.000000  -0.008677   0.000000   0.013502
   59  C  4 XZ    0.000000  -0.002069   0.000000  -0.012096   0.000000
   60  C  4 YZ    0.000000  -0.005471   0.000000   0.020851   0.000000
   61  CL 5  S   -0.000806   0.000000  -0.000413   0.000000  -0.019302
   62  CL 5  S    0.002439   0.000000   0.001140   0.000000   0.097606
   63  CL 5  X   -0.034747   0.000000  -0.110650   0.000000   0.130698
   64  CL 5  Y   -0.071824   0.000000  -0.223175   0.000000  -0.069064
   65  CL 5  Z    0.000000  -0.084971   0.000000  -0.243025   0.000000
   66  CL 5  S   -0.010923   0.000000  -0.005669   0.000000  -0.182471
   67  CL 5  X    0.087826   0.000000   0.282811   0.000000  -0.350314
   68  CL 5  Y    0.183366   0.000000   0.573823   0.000000   0.180362
   69  CL 5  Z    0.000000   0.217202   0.000000   0.624298   0.000000
   70  CL 5  S    0.009587   0.000000  -0.001063   0.000000  -0.654551
   71  CL 5  X    0.047521   0.000000   0.165182   0.000000  -0.703123
   72  CL 5  Y    0.083292   0.000000   0.326619   0.000000   0.440801
   73  CL 5  Z    0.000000   0.107416   0.000000   0.361206   0.000000
   74  CL 5 XX    0.007043   0.000000  -0.002588   0.000000   0.071908
   75  CL 5 YY   -0.008752   0.000000  -0.001628   0.000000   0.000378
   76  CL 5 ZZ   -0.000834   0.000000   0.002007   0.000000  -0.041823
   77  CL 5 XY    0.008719   0.000000   0.001021   0.000000  -0.082729
   78  CL 5 XZ    0.000000   0.008561   0.000000  -0.000229   0.000000
   79  CL 5 YZ    0.000000  -0.004613   0.000000   0.001951   0.000000
   80  H  6  S   -0.181805   0.000000   0.065145   0.000000  -0.073332
   81  H  6  S   -0.172684   0.000000   0.078336   0.000000  -0.483897
   82  H  7  S    0.159870   0.000000   0.027145   0.000000   0.029901
   83  H  7  S    0.166786   0.000000   0.019532   0.000000  -0.030597
   84  H  8  S   -0.106619   0.146687   0.009403  -0.071040   0.023056
   85  H  8  S   -0.095100   0.154116   0.011249  -0.096689   0.054224
   86  H  9  S   -0.106619  -0.146687   0.009403   0.071040   0.023056
   87  H  9  S   -0.095100  -0.154116   0.011249   0.096689   0.054224
   88  H 10  S    0.146690   0.041265  -0.015542  -0.003621  -0.060466
   89  H 10  S    0.147989   0.043210  -0.050431  -0.017194  -0.454997
   90  H 11  S    0.146690  -0.041265  -0.015542   0.003621  -0.060466
   91  H 11  S    0.147989  -0.043210  -0.050431   0.017194  -0.454997
   92  H 12  S    0.094290   0.000000  -0.125838   0.000000   0.010645
   93  H 12  S    0.104233   0.000000  -0.163645   0.000000  -0.131504

                     26         27         28         29         30
                    0.0835     0.1176     0.1349     0.1480     0.1759
                     A'         A'         A''        A'         A'  
    1  C  1  S    0.041125  -0.101593   0.000000  -0.101838  -0.008447
    2  C  1  S   -0.052021   0.129675   0.000000   0.105775   0.001763
    3  C  1  X   -0.151944  -0.020521   0.000000  -0.003121   0.270372
    4  C  1  Y   -0.038765  -0.113278   0.000000   0.150069   0.040542
    5  C  1  Z    0.000000   0.000000   0.149593   0.000000   0.000000
    6  C  1  S   -0.768360   1.624999   0.000000   1.532155   0.221871
    7  C  1  X   -0.382524   0.003986   0.000000  -0.207228   0.820475
    8  C  1  Y   -0.165035  -0.276320   0.000000   0.478223   0.215490
    9  C  1  Z    0.000000   0.000000   0.740173   0.000000   0.000000
   10  C  1 XX    0.016286   0.001516   0.000000  -0.007633  -0.017015
   11  C  1 YY   -0.009513  -0.005099   0.000000   0.000742   0.001903
   12  C  1 ZZ   -0.003796  -0.013969   0.000000  -0.017949   0.011251
   13  C  1 XY   -0.000012  -0.006349   0.000000   0.008686  -0.000612
   14  C  1 XZ    0.000000   0.000000   0.012022   0.000000   0.000000
   15  C  1 YZ    0.000000   0.000000  -0.015991   0.000000   0.000000
   16  C  2  S    0.029792  -0.039176  -0.124402   0.062106  -0.003873
   17  C  2  S   -0.063619   0.052799   0.141208  -0.085715   0.008237
   18  C  2  X   -0.081735  -0.138296   0.026840   0.046813   0.070248
   19  C  2  Y   -0.039844   0.079931   0.012256   0.155354  -0.069990
   20  C  2  Z    0.106724  -0.036441  -0.005179   0.057883  -0.037425
   21  C  2  S   -0.360884   0.659998   1.990366  -0.986817  -0.007810
   22  C  2  X   -0.080252  -0.484729   0.067031  -0.003946   0.284287
   23  C  2  Y   -0.026658   0.404204   0.088872   0.677580  -0.254638
   24  C  2  Z    0.410010  -0.093282   0.080784   0.195499  -0.174857
   25  C  2 XX   -0.001262  -0.002617  -0.006534   0.007665   0.009997
   26  C  2 YY   -0.002223  -0.002466  -0.019020   0.004326  -0.008852
   27  C  2 ZZ    0.006790   0.000670   0.000597  -0.000151  -0.004634
   28  C  2 XY   -0.000714  -0.003621   0.005649  -0.007155  -0.007985
   29  C  2 XZ   -0.019112   0.003037  -0.002504   0.005362  -0.002736
   30  C  2 YZ   -0.009161  -0.013100  -0.002608  -0.013872   0.013870
   31  C  3  S    0.029792  -0.039176   0.124402   0.062106  -0.003873
   32  C  3  S   -0.063619   0.052799  -0.141208  -0.085715   0.008237
   33  C  3  X   -0.081735  -0.138296  -0.026840   0.046813   0.070248
   34  C  3  Y   -0.039844   0.079931  -0.012256   0.155354  -0.069990
   35  C  3  Z   -0.106724   0.036441  -0.005179  -0.057883   0.037425
   36  C  3  S   -0.360884   0.659998  -1.990366  -0.986817  -0.007810
   37  C  3  X   -0.080252  -0.484729  -0.067031  -0.003946   0.284287
   38  C  3  Y   -0.026658   0.404204  -0.088872   0.677580  -0.254638
   39  C  3  Z   -0.410010   0.093282   0.080784  -0.195499   0.174857
   40  C  3 XX   -0.001262  -0.002617   0.006534   0.007665   0.009997
   41  C  3 YY   -0.002223  -0.002466   0.019020   0.004326  -0.008852
   42  C  3 ZZ    0.006790   0.000670  -0.000597  -0.000151  -0.004634
   43  C  3 XY   -0.000714  -0.003621  -0.005649  -0.007155  -0.007985
   44  C  3 XZ    0.019112  -0.003037  -0.002504  -0.005362   0.002736
   45  C  3 YZ    0.009161   0.013100  -0.002608   0.013872  -0.013870
   46  C  4  S    0.052319   0.102486   0.000000   0.021870   0.012274
   47  C  4  S   -0.064179  -0.115799   0.000000  -0.002282  -0.016189
   48  C  4  X   -0.153387   0.073254   0.000000  -0.165791  -0.252140
   49  C  4  Y   -0.111443  -0.023995   0.000000   0.189044  -0.214956
   50  C  4  Z    0.000000   0.000000   0.213400   0.000000   0.000000
   51  C  4  S   -0.991756  -1.567748   0.000000  -0.545382  -0.276192
   52  C  4  X   -0.451163   0.183071   0.000000  -0.352478  -0.857161
   53  C  4  Y   -0.256450   0.088492   0.000000   0.551960  -0.828651
   54  C  4  Z    0.000000   0.000000   0.838173   0.000000   0.000000
   55  C  4 XX    0.002301  -0.005061   0.000000  -0.004353   0.014433
   56  C  4 YY    0.006189   0.004879   0.000000  -0.004663  -0.002672
   57  C  4 ZZ   -0.003517   0.021889   0.000000   0.010662  -0.006826
   58  C  4 XY    0.018489   0.015253   0.000000  -0.000251   0.004453
   59  C  4 XZ    0.000000   0.000000  -0.001631   0.000000   0.000000
   60  C  4 YZ    0.000000   0.000000   0.020673   0.000000   0.000000
   61  CL 5  S   -0.002365   0.003531   0.000000  -0.019145  -0.004593
   62  CL 5  S    0.002747  -0.032734   0.000000   0.061723   0.019532
   63  CL 5  X   -0.000617  -0.016968   0.000000   0.030362   0.007540
   64  CL 5  Y   -0.003790   0.032119   0.000000  -0.042632  -0.008411
   65  CL 5  Z    0.000000   0.000000   0.045631   0.000000   0.000000
   66  CL 5  S   -0.046091  -0.004664   0.000000  -0.275649  -0.054216
   67  CL 5  X   -0.005333   0.030835   0.000000  -0.076428  -0.024160
   68  CL 5  Y    0.009233  -0.087760   0.000000   0.125493   0.010480
   69  CL 5  Z    0.000000   0.000000  -0.133147   0.000000   0.000000
   70  CL 5  S    0.060053   0.419554   0.000000  -0.080279  -0.126954
   71  CL 5  X    0.082997   0.372648   0.000000  -0.306079  -0.032246
   72  CL 5  Y    0.040515  -0.249405   0.000000   0.125838   0.266486
   73  CL 5  Z    0.000000   0.000000  -0.148035   0.000000   0.000000
   74  CL 5 XX   -0.024744  -0.044104   0.000000   0.013974  -0.029327
   75  CL 5 YY    0.020550  -0.014821   0.000000  -0.018399   0.055032
   76  CL 5 ZZ   -0.008644   0.029297   0.000000  -0.024996  -0.025088
   77  CL 5 XY    0.007305   0.052610   0.000000  -0.027621  -0.028926
   78  CL 5 XZ    0.000000   0.000000   0.049914   0.000000   0.000000
   79  CL 5 YZ    0.000000   0.000000  -0.027276   0.000000   0.000000
   80  H  6  S   -0.016832  -0.010565   0.000000   0.026793   0.016631
   81  H  6  S   -0.030718  -1.018229   0.000000   0.001536   0.416009
   82  H  7  S    0.049811   0.005301   0.000000  -0.020941  -0.091363
   83  H  7  S    0.900623  -0.502020   0.000000  -0.626272  -1.276961
   84  H  8  S    0.067407  -0.006223   0.022820   0.017926  -0.018460
   85  H  8  S    0.793534  -0.166942  -0.742264   0.393657  -0.283483
   86  H  9  S    0.067407  -0.006223  -0.022820   0.017926  -0.018460
   87  H  9  S    0.793534  -0.166942   0.742264   0.393657  -0.283483
   88  H 10  S   -0.050018  -0.023532  -0.027683   0.011209   0.009416
   89  H 10  S   -0.039714  -0.643170  -0.673165   0.858245   0.099915
   90  H 11  S   -0.050018  -0.023532   0.027683   0.011209   0.009416
   91  H 11  S   -0.039714  -0.643170   0.673165   0.858245   0.099915
   92  H 12  S    0.068870   0.052989   0.000000  -0.048691   0.082152
   93  H 12  S    1.116558   0.506681   0.000000   0.024349   1.582027

                     31         32         33         34         35
                    0.1819     0.1846     0.2015     0.2142     0.2285
                     A''        A'         A''        A''        A'  
    1  C  1  S    0.000000   0.042960   0.000000   0.000000   0.001509
    2  C  1  S    0.000000  -0.038386   0.000000   0.000000   0.003899
    3  C  1  X    0.000000  -0.131748   0.000000   0.000000   0.172369
    4  C  1  Y    0.000000   0.265692   0.000000   0.000000   0.274273
    5  C  1  Z    0.097368   0.000000   0.032730   0.350239   0.000000
    6  C  1  S    0.000000  -0.940833   0.000000   0.000000   0.030561
    7  C  1  X    0.000000  -0.484326   0.000000   0.000000   0.985880
    8  C  1  Y    0.000000   0.801553   0.000000   0.000000   0.977908
    9  C  1  Z    0.415579   0.000000   0.107658   1.202382   0.000000
   10  C  1 XX    0.000000   0.001536   0.000000   0.000000   0.014195
   11  C  1 YY    0.000000   0.006157   0.000000   0.000000   0.002141
   12  C  1 ZZ    0.000000   0.003993   0.000000   0.000000  -0.011095
   13  C  1 XY    0.000000   0.007387   0.000000   0.000000  -0.010316
   14  C  1 XZ   -0.003816   0.000000   0.010341   0.022600   0.000000
   15  C  1 YZ   -0.023905   0.000000  -0.006971  -0.007995   0.000000
   16  C  2  S   -0.002186  -0.057031  -0.017052  -0.006782   0.007019
   17  C  2  S    0.000669   0.057032   0.030854   0.014837  -0.003424
   18  C  2  X    0.200390  -0.017875  -0.210564   0.126158  -0.198195
   19  C  2  Y    0.126533   0.088859  -0.050584  -0.281846  -0.063529
   20  C  2  Z    0.204762  -0.086617   0.279449   0.060430   0.092337
   21  C  2  S   -0.038285   0.959059   0.033490   0.036606  -0.018665
   22  C  2  X    0.698187   0.026841  -0.654667   0.451458  -1.002872
   23  C  2  Y    0.492052   0.436865  -0.116941  -0.983677  -0.422090
   24  C  2  Z    0.642213  -0.209916   0.938152   0.237304   0.207083
   25  C  2 XX    0.011722  -0.000717   0.004537  -0.009539   0.002894
   26  C  2 YY   -0.008117  -0.005737  -0.004880   0.008075  -0.009844
   27  C  2 ZZ   -0.001332  -0.009394  -0.002438   0.000723   0.014285
   28  C  2 XY    0.010258   0.001034   0.000743   0.016464   0.002566
   29  C  2 XZ    0.002226   0.007321  -0.001453  -0.004935   0.008478
   30  C  2 YZ   -0.000502  -0.012842  -0.003389   0.010802  -0.001013
   31  C  3  S    0.002186  -0.057031   0.017052   0.006782   0.007019
   32  C  3  S   -0.000669   0.057032  -0.030854  -0.014837  -0.003424
   33  C  3  X   -0.200390  -0.017875   0.210564  -0.126158  -0.198195
   34  C  3  Y   -0.126533   0.088859   0.050584   0.281846  -0.063529
   35  C  3  Z    0.204762   0.086617   0.279449   0.060430  -0.092337
   36  C  3  S    0.038285   0.959059  -0.033490  -0.036606  -0.018665
   37  C  3  X   -0.698187   0.026841   0.654667  -0.451458  -1.002872
   38  C  3  Y   -0.492052   0.436865   0.116941   0.983677  -0.422090
   39  C  3  Z    0.642213   0.209916   0.938152   0.237304  -0.207083
   40  C  3 XX   -0.011722  -0.000717  -0.004537   0.009539   0.002894
   41  C  3 YY    0.008117  -0.005737   0.004880  -0.008075  -0.009844
   42  C  3 ZZ    0.001332  -0.009394   0.002438  -0.000723   0.014285
   43  C  3 XY   -0.010258   0.001034  -0.000743  -0.016464   0.002566
   44  C  3 XZ    0.002226  -0.007321  -0.001453  -0.004935  -0.008478
   45  C  3 YZ   -0.000502   0.012842  -0.003389   0.010802   0.001013
   46  C  4  S    0.000000   0.064982   0.000000   0.000000   0.004755
   47  C  4  S    0.000000  -0.070457   0.000000   0.000000  -0.025766
   48  C  4  X    0.000000  -0.183050   0.000000   0.000000   0.111564
   49  C  4  Y    0.000000   0.160197   0.000000   0.000000   0.070843
   50  C  4  Z    0.179650   0.000000   0.151929  -0.278456   0.000000
   51  C  4  S    0.000000  -1.106739   0.000000   0.000000   0.256445
   52  C  4  X    0.000000  -0.508830   0.000000   0.000000   0.660390
   53  C  4  Y    0.000000   0.450507   0.000000   0.000000   0.447538
   54  C  4  Z    0.707489   0.000000   0.440312  -0.987757   0.000000
   55  C  4 XX    0.000000  -0.002297   0.000000   0.000000  -0.004401
   56  C  4 YY    0.000000  -0.001426   0.000000   0.000000   0.020631
   57  C  4 ZZ    0.000000   0.019033   0.000000   0.000000  -0.011496
   58  C  4 XY    0.000000  -0.007004   0.000000   0.000000   0.004748
   59  C  4 XZ   -0.022076   0.000000   0.006004  -0.011781   0.000000
   60  C  4 YZ    0.017448   0.000000   0.019521  -0.017515   0.000000
   61  CL 5  S    0.000000  -0.007718   0.000000   0.000000   0.006057
   62  CL 5  S    0.000000   0.029334   0.000000   0.000000  -0.018214
   63  CL 5  X    0.000000   0.026798   0.000000   0.000000   0.008122
   64  CL 5  Y    0.000000   0.005544   0.000000   0.000000   0.015862
   65  CL 5  Z    0.010382   0.000000   0.014674   0.020847   0.000000
   66  CL 5  S    0.000000  -0.100745   0.000000   0.000000   0.091577
   67  CL 5  X    0.000000  -0.073516   0.000000   0.000000  -0.029702
   68  CL 5  Y    0.000000  -0.024147   0.000000   0.000000  -0.045691
   69  CL 5  Z   -0.017777   0.000000  -0.040865  -0.081174   0.000000
   70  CL 5  S    0.000000  -0.164492   0.000000   0.000000   0.061302
   71  CL 5  X    0.000000  -0.204903   0.000000   0.000000   0.085086
   72  CL 5  Y    0.000000   0.117561   0.000000   0.000000  -0.157138
   73  CL 5  Z   -0.177630   0.000000  -0.072860   0.220024   0.000000
   74  CL 5 XX    0.000000   0.025341   0.000000   0.000000   0.021804
   75  CL 5 YY    0.000000  -0.019233   0.000000   0.000000  -0.025217
   76  CL 5 ZZ    0.000000  -0.008368   0.000000   0.000000   0.015446
   77  CL 5 XY    0.000000  -0.017478   0.000000   0.000000   0.024527
   78  CL 5 XZ    0.060007   0.000000   0.032057  -0.051823   0.000000
   79  CL 5 YZ   -0.020285   0.000000  -0.010488  -0.000348   0.000000
   80  H  6  S    0.000000   0.064674   0.000000   0.000000   0.025979
   81  H  6  S    0.000000   1.334851   0.000000   0.000000   1.381204
   82  H  7  S    0.000000   0.028083   0.000000   0.000000   0.006415
   83  H  7  S    0.000000   0.757701   0.000000   0.000000  -1.145776
   84  H  8  S    0.007181  -0.037067   0.048228   0.017148   0.024908
   85  H  8  S    0.052454  -0.777915   1.460564   0.219281   0.964359
   86  H  9  S   -0.007181  -0.037067  -0.048228  -0.017148   0.024908
   87  H  9  S   -0.052454  -0.777915  -1.460564  -0.219281   0.964359
   88  H 10  S    0.086404  -0.010831  -0.011057   0.022806  -0.005171
   89  H 10  S    1.293966  -0.289568  -0.549775   0.039989  -0.945124
   90  H 11  S   -0.086404  -0.010831   0.011057  -0.022806  -0.005171
   91  H 11  S   -1.293966  -0.289568   0.549775  -0.039989  -0.945124
   92  H 12  S    0.000000  -0.022225   0.000000   0.000000   0.018099
   93  H 12  S    0.000000   0.558714   0.000000   0.000000  -0.742011

                     36         37         38         39         40
                    0.3064     0.4006     0.4403     0.4568     0.4773
                     A'         A'         A'         A''        A'  
    1  C  1  S   -0.082163   0.017361   0.006105   0.000000   0.009285
    2  C  1  S   -0.015696  -0.072007   0.036579   0.000000  -0.025416
    3  C  1  X   -0.160182  -0.065461  -0.062592   0.000000   0.036984
    4  C  1  Y    0.065399   0.061026   0.159414   0.000000   0.007639
    5  C  1  Z    0.000000   0.000000   0.000000   0.140346   0.000000
    6  C  1  S    2.635380   0.187377  -0.127268   0.000000  -0.109509
    7  C  1  X   -1.447560   0.120274   0.100182   0.000000  -0.031802
    8  C  1  Y    1.506205   0.013480  -0.234645   0.000000  -0.312930
    9  C  1  Z    0.000000   0.000000   0.000000  -0.294545   0.000000
   10  C  1 XX   -0.007553  -0.007286   0.001851   0.000000  -0.004197
   11  C  1 YY    0.013183  -0.012346  -0.026021   0.000000   0.008865
   12  C  1 ZZ   -0.011284   0.023613   0.029904   0.000000  -0.001610
   13  C  1 XY    0.014034  -0.011147   0.002869   0.000000  -0.015480
   14  C  1 XZ    0.000000   0.000000   0.000000  -0.042803   0.000000
   15  C  1 YZ    0.000000   0.000000   0.000000   0.037670   0.000000
   16  C  2  S    0.080824   0.006838   0.010379   0.002006  -0.003836
   17  C  2  S    0.024207  -0.070660  -0.096336   0.002092   0.034938
   18  C  2  X   -0.112994   0.101905   0.134590  -0.155260  -0.000209
   19  C  2  Y   -0.022492  -0.161905  -0.056043   0.302663   0.079576
   20  C  2  Z   -0.110307   0.022281  -0.013580  -0.088686   0.148745
[...]
 12   H            X -0.00000130  0.15184549  0.00000541  0.28182330  0.00004224
                   Y  0.00000148 -0.21330841 -0.00001887 -0.11116765 -0.00002758
                   Z  0.50819696  0.00000185  0.02740986  0.00001374 -0.09032995

 TRANS. SAYVETZ    X  0.00002723  0.00005110  0.00008535  0.00004199  0.00005385
                   Y  0.00002703  0.00001165  0.00008606  0.00002878  0.00005348
                   Z -0.00000761 -0.00000059 -0.00000247 -0.00000055  0.00000757
               TOTAL  0.00003911  0.00005242  0.00012123  0.00005091  0.00007627

   ROT. SAYVETZ    X -0.00894863 -0.00000173  0.00200985  0.00000257 -0.00350252
                   Y -0.00322027 -0.00000055 -0.00135417  0.00000076 -0.00181350
                   Z  0.00015330 -0.00018347  0.00047512  0.00484105  0.00029923
               TOTAL  0.00951166  0.00018347  0.00246962  0.00484105  0.00395550

                           21          22          23          24          25
       FREQUENCY:      1244.48     1262.64     1266.81     1283.90     1310.01  
        SYMMETRY:         A'          A''         A''         A'          A'' 
    REDUCED MASS:      1.28585     1.24057     1.21667     1.45188     1.41704
    IR INTENSITY:      0.06833     0.00282     0.00568     0.04680     0.00614

  1   C            X  0.10036441 -0.00001164  0.00000952 -0.01708374 -0.00000090
                   Y  0.04653590 -0.00000528  0.00000396  0.05143139 -0.00000105
                   Z -0.00000459 -0.02897039 -0.10831646 -0.00000328 -0.08011144
  2   C            X -0.03456618  0.00050900 -0.00430929  0.01873621 -0.04971185
                   Y -0.00774702  0.08955236  0.02247741 -0.10525642 -0.00311967
                   Z  0.00495493  0.00962404  0.01045106  0.00206732  0.03862392
  3   C            X -0.03458082 -0.00050020  0.00430185  0.01873539  0.04971258
                   Y -0.00774799 -0.08955415 -0.02247468 -0.10525228  0.00312084
                   Z -0.00495223  0.00962499  0.01045055 -0.00206707  0.03862391
  4   C            X -0.01743995  0.00000134 -0.00000113  0.03546313 -0.00000051
                   Y -0.06695449  0.00000646 -0.00000462  0.02621604  0.00000024
                   Z -0.00000334  0.00164355  0.05115346  0.00000091 -0.10908006
  5   CL           X  0.00469309 -0.00000033  0.00000023  0.00470780 -0.00000007
                   Y  0.00231205 -0.00000017  0.00000010  0.00139573 -0.00000001
                   Z  0.00000010 -0.00037423 -0.00051559  0.00000001  0.00176684
  6   H            X -0.17805733  0.00001741 -0.00001287 -0.07539239  0.00000210
                   Y  0.10431274 -0.00001161  0.00000905  0.06652127 -0.00000171
                   Z  0.00008940  0.42049786  0.29219629  0.00000869  0.17645522
  7   H            X  0.13246331 -0.00001527  0.00001238 -0.01221432 -0.00000126
                   Y -0.18523372  0.00001779 -0.00001400 -0.01581084  0.00000111
                   Z -0.00008707 -0.33226649  0.56949130  0.00001751  0.41223343
  8   H            X  0.17390987  0.06233953  0.11063702 -0.17001829  0.04838722
                   Y -0.25410465 -0.19458037 -0.23012639  0.42546554  0.03841183
                   Z  0.05999098 -0.04047945  0.00424874  0.05092732  0.11775742
  9   H            X  0.17395225 -0.06238127 -0.11060250 -0.17001772 -0.04838834
                   Y -0.25419515  0.19464288  0.23007306  0.42545480 -0.03841353
                   Z -0.05999686 -0.04046667  0.00423929 -0.05092343  0.11775957
 10   H            X -0.19935740  0.20515887 -0.06529925 -0.08340543  0.03526151
                   Y  0.39092983 -0.39907489  0.15174707  0.15465667 -0.10092966
                   Z -0.04756115  0.07246799  0.01934438 -0.04948421 -0.09356381
 11   H            X -0.19940447 -0.20512575  0.06527594 -0.08339600 -0.03525950
                   Y  0.39102038  0.39901179 -0.15170356  0.15463878  0.10092693
                   Z  0.04759620  0.07245765  0.01935248  0.04948524 -0.09356540
 12   H            X -0.23034775  0.00001721 -0.00001133 -0.23384819  0.00000389
                   Y  0.15472211 -0.00000989  0.00000560  0.32268361 -0.00000441
                   Z  0.00002633 -0.04304519 -0.45922369 -0.00000513  0.63452441

 TRANS. SAYVETZ    X  0.00004247 -0.00001864  0.00001880  0.00006442 -0.00000496
                   Y  0.00005663 -0.00001767  0.00001915  0.00008237 -0.00000562
                   Z -0.00000114 -0.00000012  0.00000098  0.00000112  0.00001132
               TOTAL  0.00007079  0.00002569  0.00002685  0.00010457  0.00001358

   ROT. SAYVETZ    X  0.00000077  0.00135646 -0.00326529 -0.00000102 -0.00018323
                   Y  0.00000010 -0.00210099 -0.00114319 -0.00000111  0.00240810
                   Z -0.00075773 -0.00010269  0.00010578  0.00056429 -0.00002994
               TOTAL  0.00075773  0.00250293  0.00346124  0.00056429  0.00241525

                           26          27          28          29          30
       FREQUENCY:      1331.17     1504.96     1516.02     1538.62     3079.74  
        SYMMETRY:         A'          A''         A'          A'          A'  
    REDUCED MASS:      1.25911     1.09286     1.08419     1.13122     1.05775
    IR INTENSITY:      1.15054     0.04122     0.08241     0.02903     0.74874

  1   C            X -0.00396870 -0.00000326  0.04185522  0.03490316 -0.04593438
                   Y -0.01560780 -0.00000208 -0.04302109 -0.05074386  0.04128734
                   Z  0.00000037 -0.00340377 -0.00000003  0.00000011  0.00000001
  2   C            X -0.04813935 -0.01636059  0.01213867 -0.00732216  0.00047105
                   Y  0.03796056 -0.00842356  0.00262648 -0.00907561 -0.00011756
                   Z  0.00397508 -0.05648152  0.03515716 -0.05181974 -0.01537243
  3   C            X -0.04813869  0.01636148  0.01213877 -0.00732170  0.00047151
                   Y  0.03795929  0.00842478  0.00262648 -0.00907587 -0.00011739
                   Z -0.00397430 -0.05648222 -0.03515747  0.05181884  0.01537125
  4   C            X  0.08555635  0.00000006  0.00393877 -0.01312007  0.00189008
                   Y -0.05304990 -0.00000006 -0.00299244  0.01772653  0.00164005
                   Z -0.00000110 -0.00309702 -0.00000002 -0.00000030  0.00000001
  5   CL           X  0.00807177 -0.00000001 -0.00018905  0.00023933  0.00003659
                   Y  0.00204704  0.00000001 -0.00009772 -0.00071609  0.00000693
                   Z  0.00000002 -0.00004953  0.00000001  0.00000001 -0.00000000
  6   H            X -0.00997721  0.00000756 -0.49967025 -0.41375471 -0.13979062
                   Y -0.01454672 -0.00000524  0.08482370  0.05079501 -0.58654337
                   Z -0.00000163  0.00425645 -0.00000007 -0.00000078  0.00000008
  7   H            X -0.01502651 -0.00000360 -0.04806292 -0.04333290  0.68027712
                   Y  0.04781906 -0.00000332  0.52489414  0.43690190  0.10761624
                   Z -0.00000177 -0.00442123 -0.00000013 -0.00000042  0.00000005
  8   H            X  0.07282363  0.35702705 -0.23014683  0.26739414 -0.10363173
                   Y -0.05789079  0.17095285 -0.10707066  0.13425249 -0.04869569
                   Z  0.05329901  0.24994758 -0.16251769  0.17315881  0.15803114
  9   H            X  0.07282344 -0.35703308 -0.23014908  0.26738720 -0.10362483
                   Y -0.05788695 -0.17095294 -0.10707129  0.13425094 -0.04869218
                   Z -0.05329913  0.24995176  0.16251922 -0.17315414 -0.15802075
 10   H            X  0.12295073 -0.12983186  0.08639036 -0.10056148  0.10137900
                   Y -0.31186227 -0.06940934  0.04814550 -0.04820114  0.04491817
                   Z -0.03211419  0.46163758 -0.29994202  0.34792325  0.02605538
 11   H            X  0.12294826  0.12983668  0.08639110 -0.10055942  0.10136664
                   Y -0.31185867  0.06940375  0.04814596 -0.04819942  0.04491259
                   Z  0.03211196  0.46164007  0.29994476 -0.34791480 -0.02605197
 12   H            X -0.47172913  0.00000017  0.00745014  0.03012738 -0.02404815
                   Y  0.54867857 -0.00000016 -0.00316317 -0.02567911 -0.02209126
                   Z  0.00000362  0.00116739 -0.00000004  0.00000052  0.00000002

 TRANS. SAYVETZ    X -0.00003411 -0.00002529 -0.00002855  0.00001014 -0.00000806
                   Y -0.00005204 -0.00002536 -0.00001579  0.00001610 -0.00000364
                   Z -0.00000082  0.00001724  0.00000007 -0.00000008  0.00000002
               TOTAL  0.00006222  0.00003975  0.00003262  0.00001903  0.00000885

   ROT. SAYVETZ    X  0.00000004  0.00114207  0.00000121  0.00000059 -0.00000050
                   Y  0.00000131 -0.00549749  0.00000117  0.00000070 -0.00000030
                   Z -0.00362580 -0.00014040 -0.00157553 -0.00331735 -0.00037615
               TOTAL  0.00362580  0.00561662  0.00157553  0.00331735  0.00037615

                           31          32          33          34          35
       FREQUENCY:      3083.29     3087.70     3114.52     3126.52     3138.25  
        SYMMETRY:         A''         A'          A'          A'          A'' 
    REDUCED MASS:      1.05718     1.06095     1.09464     1.10550     1.11022
    IR INTENSITY:      1.12901     0.09183     0.10290     0.09982     0.35974

  1   C            X  0.00000077  0.02293170 -0.01587538 -0.05034039  0.00000137
                   Y  0.00000134 -0.00798098 -0.01933646 -0.05906346  0.00000176
                   Z -0.00108886  0.00000001  0.00000003  0.00000015  0.00038984
  2   C            X  0.01484209 -0.01530052  0.02755697  0.01326093  0.05487087
                   Y  0.00590724 -0.00612224  0.01351981  0.00626214  0.02601833
                   Z  0.04320872 -0.04133190 -0.01234794 -0.01030333 -0.02252107
  3   C            X -0.01484317 -0.01529972  0.02755646  0.01325708 -0.05487314
                   Y -0.00590770 -0.00612186  0.01351946  0.00625996 -0.02601940
                   Z  0.04321086  0.04132977  0.01234848  0.01030345 -0.02252216
  4   C            X  0.00000001 -0.00175824 -0.04822656  0.02652739 -0.00000098
                   Y  0.00000007  0.00175021 -0.04554212  0.02587438 -0.00000096
                   Z -0.00112562  0.00000006 -0.00000008 -0.00000025  0.00024952
  5   CL           X  0.00000001  0.00018908 -0.00004585 -0.00006233  0.00000000
                   Y -0.00000000 -0.00006554  0.00018838 -0.00009152  0.00000000
                   Z  0.00001754 -0.00000000  0.00000000  0.00000000 -0.00000320
  6   H            X -0.00000404  0.03273925  0.04317851  0.12795447 -0.00000341
                   Y -0.00001988  0.12125057  0.20480789  0.63402729 -0.00001678
                   Z  0.00339556 -0.00000002 -0.00000018 -0.00000074  0.00178347
  7   H            X -0.00000965 -0.29122204  0.14630744  0.47240322 -0.00001055
                   Y -0.00000095 -0.04364092  0.01809157  0.05935250 -0.00000142
                   Z -0.00123375  0.00000007 -0.00000013 -0.00000047 -0.00400362
  8   H            X  0.25591926 -0.23493619 -0.12918065 -0.08488322 -0.24382168
                   Y  0.12802185 -0.11883081 -0.06693858 -0.04023949 -0.12219715
                   Z -0.38420838  0.35725030  0.20902130  0.13392214  0.39274555
  9   H            X -0.25593114 -0.23492359 -0.12918341 -0.08487790  0.24383246
                   Y -0.12802776 -0.11882469 -0.06693958 -0.04023550  0.12220238
                   Z -0.38422624 -0.35723167 -0.20902468 -0.13391064  0.39276275
 10   H            X -0.43406540  0.41474087 -0.19804934 -0.07317786 -0.40920609
                   Y -0.19701740  0.18926717 -0.08757393 -0.03628364 -0.18505253
                   Z -0.11863166  0.11393925 -0.06019498 -0.02336454 -0.12573261
 11   H            X  0.43409036  0.41471857 -0.19804026 -0.07313667  0.40922231
                   Y  0.19702873  0.18925701 -0.08756976 -0.03626478  0.18506010
                   Z -0.11863855 -0.11393328  0.06019273  0.02335356 -0.12573766
 12   H            X -0.00000053  0.00457687  0.57358357 -0.31432139  0.00001160
                   Y -0.00000053  0.00378462  0.53012943 -0.29109505  0.00001081
                   Z  0.00031909 -0.00000003 -0.00000006  0.00000021 -0.00299742

 TRANS. SAYVETZ    X -0.00000457  0.00001118  0.00000031  0.00000617  0.00000243
                   Y -0.00000473  0.00001172 -0.00000270  0.00000787  0.00000236
                   Z  0.00000046 -0.00000004 -0.00000007 -0.00000006  0.00000031
               TOTAL  0.00000659  0.00001620  0.00000271  0.00001000  0.00000340

   ROT. SAYVETZ    X  0.00020666  0.00000010 -0.00000004  0.00000019  0.00001316
                   Y -0.00005072 -0.00000001  0.00000023 -0.00000005 -0.00001217
                   Z -0.00002588  0.00010724 -0.00070289  0.00100073  0.00001305
               TOTAL  0.00021436  0.00010724  0.00070289  0.00100073  0.00002217

                           36
       FREQUENCY:      3149.71  
        SYMMETRY:         A'  
    REDUCED MASS:      1.10625
    IR INTENSITY:      1.28294

  1   C            X -0.03190009
                   Y -0.02538588
                   Z  0.00000006
  2   C            X -0.04537982
                   Y -0.02113292
                   Z  0.01610748
  3   C            X -0.04537843
                   Y -0.02113245
                   Z -0.01610633
  4   C            X -0.02164508
                   Y -0.02080049
                   Z -0.00000013
  5   CL           X  0.00010979
                   Y  0.00011377
                   Z  0.00000000
  6   H            X  0.05365268
                   Y  0.26724783
                   Z -0.00000037
  7   H            X  0.32591666
                   Y  0.03890041
                   Z -0.00000012
  8   H            X  0.18426417
                   Y  0.09190820
                   Z -0.29747498
  9   H            X  0.18425394
                   Y  0.09190372
                   Z  0.29745984
 10   H            X  0.35813802
                   Y  0.16187579
                   Z  0.11213613
 11   H            X  0.35813202
                   Y  0.16187319
                   Z -0.11213356
 12   H            X  0.25002572
                   Y  0.23551877
                   Z  0.00000009

 TRANS. SAYVETZ    X -0.00000350
                   Y -0.00000429
                   Z -0.00000005
               TOTAL  0.00000554

   ROT. SAYVETZ    X -0.00000005
                   Y  0.00000015
                   Z  0.00012365
               TOTAL  0.00012365

 REFERENCE ON SAYVETZ CONDITIONS - A. SAYVETZ, J.CHEM.PHYS., 7, 383-389(1939).

 NOTE - THE MODES J,K ARE ORTHONORMALIZED ACCORDING TO
 SUM ON I   M(I) * (X(I,J)*X(I,K) + Y(I,J)*Y(I,K) + Z(I,J)*Z(I,K)) = DELTA(J,K)

  MODE FREQ(CM**-1)  SYMMETRY  RED. MASS  IR INTENS.
     1       9.094    A''      2.824247    0.017132
     2       5.062    A'       5.849043    0.028893
     3       1.653    A''      3.863684    0.010822
     4       0.058    A'       7.504482    0.000000
     5       0.037    A'       7.501917    0.000002
     6       0.168    A''      8.217304    0.000101
     7     159.254    A'       2.161045    0.019405
     8     282.746    A''      3.547685    0.023351
     9     367.933    A'       3.502689    0.165248
    10     527.106    A'       2.585660    0.161128
    11     728.261    A'       1.607503    0.368028
    12     795.848    A''      1.179507    0.018850
    13     846.099    A'       2.721511    1.264950
    14     920.626    A''      2.719515    0.007455
    15     923.727    A'       2.015004    0.014903
    16     960.458    A''      1.285835    0.057337
    17    1037.647    A'       3.160484    0.407804
    18    1056.935    A''      1.948579    0.013079
    19    1133.784    A'       2.017683    0.003748
    20    1203.120    A''      1.320778    0.022272
    21    1244.483    A'       1.285845    0.068328
    22    1262.635    A''      1.240571    0.002819
    23    1266.806    A''      1.216668    0.005675
    24    1283.900    A'       1.451876    0.046796
    25    1310.006    A''      1.417042    0.006144
    26    1331.170    A'       1.259111    1.150543
    27    1504.964    A''      1.092863    0.041216
    28    1516.022    A'       1.084191    0.082409
    29    1538.620    A'       1.131223    0.029033
    30    3079.741    A'       1.057751    0.748739
    31    3083.289    A''      1.057178    1.129010
    32    3087.697    A'       1.060952    0.091833
    33    3114.520    A'       1.094642    0.102898
    34    3126.524    A'       1.105504    0.099816
    35    3138.249    A''      1.110220    0.359735
    36    3149.711    A'       1.106247    1.282945

     -------------------------------
     THERMOCHEMISTRY AT T=  298.15 K
     -------------------------------

 USING IDEAL GAS, RIGID ROTOR, HARMONIC NORMAL MODE APPROXIMATIONS.
 P=  1.01325E+05 PASCAL.
 ALL FREQUENCIES ARE SCALED BY   1.00000
 THE MOMENTS OF INERTIA ARE (IN AMU*BOHR**2)
            179.41647           730.85774           837.55125
 THE ROTATIONAL SYMMETRY NUMBER IS  1.0
 THE ROTATIONAL CONSTANTS ARE (IN GHZ)
     10.04974     2.46709     2.15281
      7 -     36 VIBRATIONAL MODES ARE USED IN THERMOCHEMISTRY.
 THE HARMONIC ZERO POINT ENERGY IS (SCALED BY   1.000)
        0.102476 HARTREE/MOLECULE    22490.939992 CM**-1/MOLECULE 
       64.304889 KCAL/MOL              269.051655 KJ/MOL

               Q               LN Q
 ELEC.     1.00000E+00       0.000000
 TRANS.    3.35729E+07      17.329229
 ROT.      1.18630E+05      11.683765
 VIB.      3.75157E+00       1.322176
 TOT.      1.49416E+13      30.335170

              E         H         G         CV        CP        S
           KJ/MOL    KJ/MOL    KJ/MOL   J/MOL-K   J/MOL-K   J/MOL-K
 ELEC.      0.000     0.000     0.000     0.000     0.000     0.000
 TRANS.     3.718     6.197   -42.958    12.472    20.786   164.868
 ROT.       3.718     3.718   -28.963    12.472    12.472   109.615
 VIB.     274.806   274.806   265.774    50.067    50.067    30.293
 TOTAL    282.243   284.722   193.853    75.010    83.324   304.776
 VIB. THERMAL CORRECTION E(T)-E(0) = H(T)-H(0) =      5754.252 J/MOL

              E         H         G         CV        CP        S
         KCAL/MOL  KCAL/MOL  KCAL/MOL CAL/MOL-K CAL/MOL-K CAL/MOL-K
 ELEC.      0.000     0.000     0.000     0.000     0.000     0.000
 TRANS.     0.889     1.481   -10.267     2.981     4.968    39.404
 ROT.       0.889     0.889    -6.922     2.981     2.981    26.199
 VIB.      65.680    65.680    63.522    11.966    11.966     7.240
 TOTAL     67.458    68.050    46.332    17.928    19.915    72.843
 VIB. THERMAL CORRECTION E(T)-E(0) = H(T)-H(0) =      1375.299 CAL/MOL
 ......END OF NORMAL COORDINATE ANALYSIS......
 STEP CPU TIME =     0.00 TOTAL CPU TIME =       1549.6 (     25.8 MIN)
 TOTAL WALL CLOCK TIME=       1555.5 SECONDS, CPU UTILIZATION IS    99.62%
               1121862  WORDS OF DYNAMIC MEMORY USED
 EXECUTION OF GAMESS TERMINATED NORMALLY Mon Oct 31 07:45:03 2022
 DDI: 263640 bytes (0.3 MB / 0 MWords) used by master data server.

 ----------------------------------------
 CPU timing information for all processes
 ========================================
 0: 1545.267 + 4.344 = 1549.612
 ----------------------------------------
 ddikick.x: exited gracefully.
----- accounting info -----
Files used on the master node chemcompute-node-0.novalocal were:
-rw-r--r--. 1 chemcomp chemcomp      951 Oct 31 07:19 /scratch/141915/483993.F05
-rw-rw-r--. 1 chemcomp chemcomp 70451200 Oct 31 07:45 /scratch/141915/483993.F10
-rw-rw-r--. 1 chemcomp chemcomp  6038704 Oct 31 07:44 /scratch/141915/483993.F22
Mon Oct 31 07:45:06 UTC 2022
0.097u 0.044s 25:58.83 0.0%	0+0k 8+208io 0pf+0w
Finishing Up...
Looking for IR data...
Looking for Raman data...
vibramans not found
Looking for thermodynamics data...
Looking for UV-Vis data...
chemcompute.org
{'UTCtimestamp': '2022-10-31T07:45:09.004094', 'cluster': 'jetstream2', 'clusterJobNumber': '141915', 'status': 'COMPLETE', 'nodeList': 'chemcompute-node-0'}
141915
