chemcompute.org
{'UTCtimestamp': '2022-10-04T04:27:53.836876', 'cluster': 'jetstream2', 'clusterJobNumber': '120557', 'status': 'RUNNING', 'nodeList': 'chemcompute-node-0'}
----- GAMESS execution script 'rungms' -----
This job is running on host chemcompute-node-0.novalocal
under operating system Linux at Tue Oct 4 04:27:57 UTC 2022
SLURM has assigned the following compute nodes to this run:
Available scratch disk space (Kbyte units) at beginning of the job is
Filesystem     1K-blocks     Used Available Use% Mounted on
/dev/sda1       62903276 11686216  51217060  19% /
GAMESS temporary binary files will be written to /scratch/120557
GAMESS supplementary output files will be written to /data/slurm/46/460164
Copying input file 460164.inp to your run's scratch directory...
The generated host list is
chemcompute-node-0.novalocal

 Distributed Data Interface kickoff program.
 Initiating 1 compute processes on 1 nodes to run the following command:
 /data/gamess-2019R1-avx2-ddi/gamess.00.x 460164 

          ******************************************************
          *         GAMESS VERSION = 30 JUN 2019 (R1)          *
          *             FROM IOWA STATE UNIVERSITY             *
          * M.W.SCHMIDT, K.K.BALDRIDGE, J.A.BOATZ, S.T.ELBERT, *
          *   M.S.GORDON, J.H.JENSEN, S.KOSEKI, N.MATSUNAGA,   *
          *          K.A.NGUYEN, S.J.SU, T.L.WINDUS,           *
          *       TOGETHER WITH M.DUPUIS, J.A.MONTGOMERY       *
          *         J.COMPUT.CHEM.  14, 1347-1363(1993)        *
          **************** 64 BIT INTEL VERSION ****************

  SINCE 1993, STUDENTS AND POSTDOCS WORKING AT IOWA STATE UNIVERSITY
  AND ALSO IN THEIR VARIOUS JOBS AFTER LEAVING ISU HAVE MADE IMPORTANT
  CONTRIBUTIONS TO THE CODE:
     IVANA ADAMOVIC, CHRISTINE AIKENS, YURI ALEXEEV, POOJA ARORA,
     ANDREY ASADCHEV, ROB BELL, PRADIPTA BANDYOPADHYAY, JONATHAN BENTZ,
     COLLEEN BERTONI, BRETT BODE, KURT BRORSEN, CALEB CARLIN, GALINA CHABAN,
     WEI CHEN, CHEOL HO CHOI, PAUL DAY, ALBERT DEFUSCO, NUWAN DESILVA,
     TIM DUDLEY, DMITRI FEDOROV, ALEX FINDLATER, GRAHAM FLETCHER, 
     MARK FREITAG, KURT GLAESEMANN, ANASTASIA GUNINA,
     DAN KEMP, GRANT MERRILL, NORIYUKI MINEZAWA, JONATHAN MULLIN,
     TAKESHI NAGATA, SEAN NEDD, HEATHER NETZLOFF, BOSILJKA NJEGIC, RYAN OLSON,
     MIKE PAK, BUU PHAM,
     SPENCER PRUITT, LUKE ROSKOP, JIM SHOEMAKER, LYUDMILA SLIPCHENKO,
     TONY SMITH, SAROM SOK LEANG, JIE SONG, TETSUYA TAKETSUGU, SIMON WEBB,
     PENG XU, SOOHAENG YOO, FEDERICO ZAHARIEV

  ADDITIONAL CODE HAS BEEN PROVIDED BY COLLABORATORS IN OTHER GROUPS:
     IOWA STATE UNIVERSITY:
          JOE IVANIC, AARON WEST, LAIMUTIS BYTAUTAS, KLAUS RUEDENBERG
     UNIVERSITY OF TOKYO: KIMIHIKO HIRAO, TAKAHITO NAKAJIMA,
          TAKAO TSUNEDA, MUNEAKI KAMIYA, SUSUMU YANAGISAWA,
          KIYOSHI YAGI, MAHITO CHIBA, SEIKEN TOKURA, NAOAKI KAWAKAMI
     UNIVERSITY OF AARHUS: FRANK JENSEN
     UNIVERSITY OF IOWA: VISVALDAS KAIRYS, HUI LI
     NATIONAL INST. OF STANDARDS AND TECHNOLOGY: WALT STEVENS, DAVID GARMER
     UNIVERSITY OF PISA: BENEDETTA MENNUCCI, JACOPO TOMASI
     UNIVERSITY OF MEMPHIS: HENRY KURTZ, PRAKASHAN KORAMBATH
     UNIVERSITY OF ALBERTA: TOBY ZENG, MARIUSZ KLOBUKOWSKI
     UNIVERSITY OF NEW ENGLAND: MARK SPACKMAN
     MIE UNIVERSITY: HIROAKI UMEDA
     NAT. INST. OF ADVANCED INDUSTRIAL SCIENCE AND TECHNOLOGY: KAZUO KITAURA
     MICHIGAN STATE UNIVERSITY:
          KAROL KOWALSKI, MARTA WLOCH, JEFFREY GOUR, JESSE LUTZ,
          WEI LI, JUN SHEN, J. EMILIANO DEUSTUA, PIOTR PIECUCH
     UNIVERSITY OF MINNESOTA:
          YINAN SHU
     UNIVERSITY OF SILESIA: MONIKA MUSIAL, STANISLAW KUCHARSKI
     FACULTES UNIVERSITAIRES NOTRE-DAME DE LA PAIX:
          OLIVIER QUINET, BENOIT CHAMPAGNE
     UNIVERSITY OF CALIFORNIA - SANTA BARBARA: BERNARD KIRTMAN
     INSTITUTE FOR MOLECULAR SCIENCE:
          KAZUYA ISHIMURA, MICHIO KATOUDA, AND SHIGERU NAGASE
     UNIVERSITY OF NOTRE DAME: ANNA POMOGAEVA, DAN CHIPMAN
     KYUSHU UNIVERSITY:
          HARUYUKI NAKANO,
          FENG LONG GU, JACEK KORCHOWIEC, MARCIN MAKOWSKI, AND YURIKO AOKI,
          HIROTOSHI MORI AND EISAKU MIYOSHI
     PENNSYLVANIA STATE UNIVERSITY:
          TZVETELIN IORDANOV, CHET SWALINA, JONATHAN SKONE,
          SHARON HAMMES-SCHIFFER
     WASEDA UNIVERSITY:
          MASATO KOBAYASHI, TOMOKO AKAMA, TSUGUKI TOUMA,
          TAKESHI YOSHIKAWA, YASUHIRO IKABATA, JUNJI SEINO,
          YUYA NAKAJIMA, HIROMI NAKAI
     NANJING UNIVERSITY: SHUHUA LI
     UNIVERSITY OF NEBRASKA:
          PEIFENG SU, DEJUN SI, NANDUN THELLAMUREGE, YALI WANG, HUI LI
     UNIVERSITY OF ZURICH: ROBERTO PEVERATI, KIM BALDRIDGE
     N. COPERNICUS UNIVERSITY AND JACKSON STATE UNIVERSITY:
          MARIA BARYSZ
     UNIVERSITY OF COPENHAGEN: Jimmy Kromann, CASPER STEINMANN
     TOKYO INSTITUTE OF TECHNOLOGY: HIROYA NAKATA
     NAGOYA UNIVERSITY: YOSHIO NISHIMOTO, STEPHAN IRLE
     MOSCOW STATE UNIVERSITY: VLADIMIR MIRONOV
     A.N.NESMEYANOV INSTITUTE OF ORGANOELEMENT COMPOUNDS OF RUSSIAN ACADEMY OF SCIENCES:
          IGOR S. GERASIMOV

 EXECUTION OF GAMESS BEGUN Tue Oct  4 04:27:57 2022

            ECHO OF THE FIRST FEW INPUT CARDS -
 INPUT CARD>!                                                                               
 INPUT CARD>!   GAMESS Calculation input file                                               
 INPUT CARD>!                                                                               
 INPUT CARD>!                                                                               
 INPUT CARD> $CONTRL SCFTYP=RHF MAXIT=200 RUNTYP=OPTIMIZE                                   
 INPUT CARD>         COORD=UNIQUE MULT=1                                                    
 INPUT CARD>         ICHARG=0                                                               
 INPUT CARD>         DFTTYP=B3LYP                                                           
 INPUT CARD>         MOLPLT=.FALSE. PLTORB=.FALSE.  $END                                    
 INPUT CARD> $SYSTEM TIMLIM=2879 MWORDS=250  $END                                           
 INPUT CARD>                                                                                
 INPUT CARD> $FORCE METHOD=SEMINUM NVIB=2 $END                                              
 INPUT CARD> $STATPT OPTTOL=0.0005 NSTEP=999 $END                                           
 INPUT CARD> $STATPT IHREP=0 HSSEND=.TRUE.  $END                                            
 INPUT CARD>                                                                                
 INPUT CARD> $DFT    METHOD=GRID  NLEB=590  $END                                            
 INPUT CARD>                                                                                
 INPUT CARD> $BASIS  GBASIS=N31 NGAUSS=6                                                    
 INPUT CARD>         NDFUNC=1   NPFUNC=0  $END                                              
 INPUT CARD>                                                                                
 INPUT CARD> $SCF    DIRSCF=.T. $END                                                        
 INPUT CARD> $GUESS  GUESS=HUCKEL  $END                                                     
 INPUT CARD>                                                                                
 INPUT CARD> $DATA                                                                          
 INPUT CARD>                                                                                
 INPUT CARD>  Cs                                                                            
 INPUT CARD>                                                                                
 INPUT CARD>C     6.0     0.83     0.94    -0.00                                            
 INPUT CARD>C     6.0    -0.45     0.16     0.00                                            
 INPUT CARD>N     7.0    -0.51    -1.13     0.00                                            
 INPUT CARD>H     1.0     1.41     0.68    -0.89                                            
 INPUT CARD>H     1.0     0.62     2.01    -0.00                                            
 INPUT CARD>H     1.0    -1.39     0.75     0.00                                            
 INPUT CARD>H     1.0     0.43    -1.55     0.00                                            
 INPUT CARD> $END                                                                           
 INPUT CARD>                                                                                
 INPUT CARD>                                                                                
 INPUT CARD>! Customizations after this line are persisted when using Do More Calculations  
  250000000 WORDS OF MEMORY AVAILABLE

     BASIS OPTIONS
     -------------
     GBASIS=N31          IGAUSS=       6      POLAR=POPN31  
     NDFUNC=       1     NFFUNC=       0     DIFFSP=       F
     NPFUNC=       0      DIFFS=       F     BASNAM=        


     RUN TITLE
     ---------
                                                                                 

 THE POINT GROUP OF THE MOLECULE IS CS      
 THE ORDER OF THE PRINCIPAL AXIS IS     0

 ATOM      ATOMIC                      COORDINATES (BOHR)
           CHARGE         X                   Y                   Z
 C           6.0     1.5684725698        1.7763424285        0.0000000000
 C           6.0    -0.8503766945        0.3023561580        0.0000000000
 N           7.0    -0.9637602537       -2.1353903661        0.0000000000
 H           1.0     2.6645136427        1.2850136717        1.6818561291
 H           1.0     2.6645136427        1.2850136717       -1.6818561291
 H           1.0     1.1716301124        3.7983492353        0.0000000000
 H           1.0    -2.6267191229        1.4172944908        0.0000000000
 H           1.0     0.8125821747       -2.9290752810        0.0000000000

          INTERNUCLEAR DISTANCES (ANGS.)
          ------------------------------

                1 C          2 C          3 N          4 H          5 H     

   1 C       0.0000000    1.4989330 *  2.4658670 *  1.0936636 *  1.0936636 *
   2 C       1.4989330 *  0.0000000    1.2913946 *  2.1265230 *  2.1265230 *
   3 N       2.4658670 *  1.2913946 *  0.0000000    2.7847082 *  2.7847082 *
   4 H       1.0936636 *  2.1265230 *  2.7847082 *  0.0000000    1.7800000 *
   5 H       1.0936636 *  2.1265230 *  2.7847082 *  1.7800000 *  0.0000000  
   6 H       1.0904128 *  2.1371476 *  3.3371395    1.7846848 *  1.7846848 *
   7 H       2.2281158 *  1.1098198 *  2.0757649 *  2.9388773 *  2.9388773 *
   8 H       2.5219239 *  1.9231485 *  1.0295630 *  2.5933376 *  2.5933376 *

                6 H          7 H          8 H     

   1 C       1.0904128 *  2.2281158 *  2.5219239 *
   2 C       2.1371476 *  1.1098198 *  1.9231485 *
   3 N       3.3371395    2.0757649 *  1.0295630 *
   4 H       1.7846848 *  2.9388773 *  2.5933376 *
   5 H       1.7846848 *  2.9388773 *  2.5933376 *
   6 H       0.0000000    2.3722774 *  3.5650666  
   7 H       2.3722774 *  0.0000000    2.9329848 *
   8 H       3.5650666    2.9329848 *  0.0000000  

  * ... LESS THAN  3.000


     ATOMIC BASIS SET
     ----------------
 THE CONTRACTED PRIMITIVE FUNCTIONS HAVE BEEN UNNORMALIZED
 THE CONTRACTED BASIS FUNCTIONS ARE NOW NORMALIZED TO UNITY

  SHELL TYPE  PRIMITIVE        EXPONENT          CONTRACTION COEFFICIENT(S)

 C         

      1   S       1          3047.5248800    0.001834737132
      1   S       2           457.3695180    0.014037322813
      1   S       3           103.9486850    0.068842622264
      1   S       4            29.2101553    0.232184443216
      1   S       5             9.2866630    0.467941348435
      1   S       6             3.1639270    0.362311985337

      2   L       7             7.8682723   -0.119332419775    0.068999066591
      2   L       8             1.8812885   -0.160854151696    0.316423960957
      2   L       9             0.5442493    1.143456437840    0.744308290898

      3   L      10             0.1687145    1.000000000000    1.000000000000

      4   D      11             0.8000000    1.000000000000

 C         

      5   S      12          3047.5248800    0.001834737132
      5   S      13           457.3695180    0.014037322813
      5   S      14           103.9486850    0.068842622264
      5   S      15            29.2101553    0.232184443216
      5   S      16             9.2866630    0.467941348435
      5   S      17             3.1639270    0.362311985337

      6   L      18             7.8682723   -0.119332419775    0.068999066591
      6   L      19             1.8812885   -0.160854151696    0.316423960957
      6   L      20             0.5442493    1.143456437840    0.744308290898

      7   L      21             0.1687145    1.000000000000    1.000000000000

      8   D      22             0.8000000    1.000000000000

 N         

      9   S      23          4173.5114600    0.001834772160
      9   S      24           627.4579110    0.013994627002
      9   S      25           142.9020930    0.068586551812
      9   S      26            40.2343293    0.232240873040
      9   S      27            12.8202129    0.469069948082
      9   S      28             4.3904370    0.360455199063

     10   L      29            11.6263619   -0.114961181702    0.067579743878
     10   L      30             2.7162798   -0.169117478561    0.323907295893
     10   L      31             0.7722184    1.145851947027    0.740895139755

     11   L      32             0.2120315    1.000000000000    1.000000000000

     12   D      33             0.8000000    1.000000000000

 H         

     15   S      34            18.7311370    0.033494604338
     15   S      35             2.8253944    0.234726953484
     15   S      36             0.6401217    0.813757326146

     16   S      37             0.1612778    1.000000000000

 H         

     17   S      38            18.7311370    0.033494604338
     17   S      39             2.8253944    0.234726953484
     17   S      40             0.6401217    0.813757326146

     18   S      41             0.1612778    1.000000000000

 H         

     19   S      42            18.7311370    0.033494604338
     19   S      43             2.8253944    0.234726953484
     19   S      44             0.6401217    0.813757326146

     20   S      45             0.1612778    1.000000000000

 H         

     21   S      46            18.7311370    0.033494604338
     21   S      47             2.8253944    0.234726953484
     21   S      48             0.6401217    0.813757326146

     22   S      49             0.1612778    1.000000000000

 TOTAL NUMBER OF BASIS SET SHELLS             =   22
 NUMBER OF CARTESIAN GAUSSIAN BASIS FUNCTIONS =   55
 NUMBER OF ELECTRONS                          =   24
 CHARGE OF MOLECULE                           =    0
 SPIN MULTIPLICITY                            =    1
 NUMBER OF OCCUPIED ORBITALS (ALPHA)          =   12
 NUMBER OF OCCUPIED ORBITALS (BETA )          =   12
 TOTAL NUMBER OF ATOMS                        =    8
 THE NUCLEAR REPULSION ENERGY IS       70.6819669371

 SELECTED MURRAY-HANDY-LAMING RADIAL GRID

 LEGACY BECKE'S FUZZY CELL METHOD

 SELECTED ORIGINAL BECKE'S PARTITION FUNCTION

     LEBEDEV GRID-BASED DFT OPTIONS
     ------------------------------
     DFTTYP=B3LYP   
     NRAD  =      96     NLEB  =     590
     NRAD0 =      24     NLEB0 =     110
     SWOFF =    5.00E-03 (PURE SCF -> DFT)
     SWITCH=    3.00E-04 (COARSE -> TIGHT GRID)
     THRESH=    0.00E+00 GTHRE=    1.00E+00

 GRIMME'S EMPIRICAL DISPERSION CORRECTION= F

     $CONTRL OPTIONS
     ---------------
 SCFTYP=RHF          RUNTYP=OPTIMIZE     EXETYP=RUN     
 MPLEVL=       0     CITYP =NONE         CCTYP =NONE         VBTYP =NONE    
 DFTTYP=B3LYP        TDDFT =NONE    
 MULT  =       1     ICHARG=       0     NZVAR =       0     COORD =UNIQUE  
 PP    =NONE         RELWFN=NONE         LOCAL =NONE         NUMGRD=       F
 ISPHER=      -1     NOSYM =       0     MAXIT =     200     UNITS =ANGS    
 PLTORB=       F     MOLPLT=       F     AIMPAC=       F     FRIEND=        
 NPRINT=       7     IREST =       0     GEOM  =INPUT   
 NORMF =       0     NORMP =       0     ITOL  =      20     ICUT  =       9
 INTTYP=BEST         GRDTYP=BEST         QMTTOL= 1.0E-06

     $SYSTEM OPTIONS
     ---------------
  REPLICATED MEMORY=   250000000 WORDS (ON EVERY NODE).
 DISTRIBUTED MEMDDI=           0 MILLION WORDS IN AGGREGATE,
 MEMDDI DISTRIBUTED OVER   1 PROCESSORS IS           0 WORDS/PROCESSOR.
 TOTAL MEMORY REQUESTED ON EACH PROCESSOR=   250000000 WORDS.
 TIMLIM=        2879.00 MINUTES, OR       2.0 DAYS.
 PARALL= F  BALTYP=  DLB     KDIAG=    0  COREFL= F
 MXSEQ2=     300 MXSEQ3=     150  mem10=         0

          ----------------
          PROPERTIES INPUT
          ----------------

     MOMENTS            FIELD           POTENTIAL          DENSITY
 IEMOM =       1   IEFLD =       0   IEPOT =       0   IEDEN =       0
 WHERE =COMASS     WHERE =NUCLEI     WHERE =NUCLEI     WHERE =NUCLEI  
 OUTPUT=BOTH       OUTPUT=BOTH       OUTPUT=BOTH       OUTPUT=BOTH    
 IEMINT=       0   IEFINT=       0                     IEDINT=       0
                                                       MORB  =       0
          EXTRAPOLATION IN EFFECT
          DIIS IN EFFECT
 ORBITAL PRINTING OPTION: NPREO=     1    55     2     1

     -------------------------------
     INTEGRAL TRANSFORMATION OPTIONS
     -------------------------------
     NWORD  =            0
     CUTOFF = 1.0E-09     MPTRAN =       0
     DIRTRF =       T     AOINTS =DUP     

          ----------------------
          INTEGRAL INPUT OPTIONS
          ----------------------
 NOPK  =       1 NORDER=       0 SCHWRZ=       T

     ------------------------------------------
     THE POINT GROUP IS CS , NAXIS= 0, ORDER= 2
     ------------------------------------------

     DIMENSIONS OF THE SYMMETRY SUBSPACES ARE
 A'  =   41     A'' =   14

 ..... DONE SETTING UP THE RUN .....
 STEP CPU TIME =     0.01 TOTAL CPU TIME =          0.0 (      0.0 MIN)
 TOTAL WALL CLOCK TIME=          0.0 SECONDS, CPU UTILIZATION IS    50.00%


          -----------------------------
          STATIONARY POINT LOCATION RUN
          -----------------------------

 OBTAINING INITIAL HESSIAN, HESS=GUESS   
 CARTESIAN COORDINATE OPTIMIZATION USING BADGER'S RULE FORCE CONSTANT GUESS

          PARAMETERS CONTROLLING GEOMETRY SEARCH ARE
          METHOD =QA                  UPHESS =BFGS    
          NNEG   =         0          NFRZ   =         0
          NSTEP  =       999          IFOLOW =         1
          HESS   =GUESS               RESTAR =         F
          IHREP  =         0          HSSEND =         T
          NPRT   =         0          NPUN   =         0
          OPTTOL = 5.000E-04          RMIN   = 1.500E-03
          RMAX   = 1.000E-01          RLIM   = 7.000E-02
          DXMAX  = 3.000E-01          PURIFY =         F
          MOVIE  =         F          TRUPD  =         T
          TRMAX  = 5.000E-01          TRMIN  = 5.000E-02
          ITBMAT =         5          STPT   =         F
          STSTEP = 1.000E-02          PROJCT=          T

 BEGINNING GEOMETRY SEARCH POINT NSERCH=   0 ...

 COORDINATES OF SYMMETRY UNIQUE ATOMS (ANGS)
   ATOM   CHARGE       X              Y              Z
 ------------------------------------------------------------
 C           6.0   0.8300000000   0.9400000000   0.0000000000
 C           6.0  -0.4500000000   0.1600000000   0.0000000000
 N           7.0  -0.5100000000  -1.1300000000   0.0000000000
 H           1.0   1.4100000000   0.6800000000  -0.8900000000
 H           1.0   0.6200000000   2.0100000000   0.0000000000
 H           1.0  -1.3900000000   0.7500000000   0.0000000000
 H           1.0   0.4300000000  -1.5500000000   0.0000000000
 COORDINATES OF ALL ATOMS ARE (ANGS)
   ATOM   CHARGE       X              Y              Z
 ------------------------------------------------------------
 C           6.0   0.8300000000   0.9400000000   0.0000000000
 C           6.0  -0.4500000000   0.1600000000   0.0000000000
 N           7.0  -0.5100000000  -1.1300000000   0.0000000000
 H           1.0   1.4100000000   0.6800000000   0.8900000000
 H           1.0   1.4100000000   0.6800000000  -0.8900000000
 H           1.0   0.6200000000   2.0100000000   0.0000000000
 H           1.0  -1.3900000000   0.7500000000   0.0000000000
 H           1.0   0.4300000000  -1.5500000000   0.0000000000

          ********************
          1 ELECTRON INTEGRALS
          ********************
 ...... END OF ONE-ELECTRON INTEGRALS ......
 STEP CPU TIME =     0.01 TOTAL CPU TIME =          0.0 (      0.0 MIN)
 TOTAL WALL CLOCK TIME=          0.0 SECONDS, CPU UTILIZATION IS    66.67%

          -------------
          GUESS OPTIONS
          -------------
          GUESS =HUCKEL            NORB  =       0          NORDER=       0
          MIX   =       F          PRTMO =       F          PUNMO =       F
          TOLZ  = 1.0E-08          TOLE  = 1.0E-05
          SYMDEN=       F          PURIFY=       F

 INITIAL GUESS ORBITALS GENERATED BY HUCKEL   ROUTINE.
 HUCKEL GUESS REQUIRES     29549 WORDS.

 SYMMETRIES FOR INITIAL GUESS ORBITALS FOLLOW.   BOTH SET(S).
    12 ORBITALS ARE OCCUPIED (    3 CORE ORBITALS).
     4=A'       5=A'       6=A'       7=A''      8=A'       9=A'      10=A'  
    11=A''     12=A'      13=A''     14=A'      15=A''     16=A'      17=A'  
    18=A'      19=A'      20=A'      21=A'      22=A'  
 ...... END OF INITIAL ORBITAL SELECTION ......
 STEP CPU TIME =     0.01 TOTAL CPU TIME =          0.0 (      0.0 MIN)
 TOTAL WALL CLOCK TIME=          0.1 SECONDS, CPU UTILIZATION IS    60.00%

                    ----------------------
                    AO INTEGRAL TECHNOLOGY
                    ----------------------
     S,P,L SHELL ROTATED AXIS INTEGRALS, REPROGRAMMED BY
        KAZUYA ISHIMURA (IMS) AND JOSE SIERRA (SYNSTAR).
     S,P,D,L SHELL ROTATED AXIS INTEGRALS PROGRAMMED BY
        KAZUYA ISHIMURA (INSTITUTE FOR MOLECULAR SCIENCE).
     S,P,D,F,G SHELL TO TOTAL QUARTET ANGULAR MOMENTUM SUM 5,
        ERIC PROGRAM BY GRAHAM FLETCHER (ELORET AND NASA ADVANCED
        SUPERCOMPUTING DIVISION, AMES RESEARCH CENTER).
     S,P,D,F,G,L SHELL GENERAL RYS QUADRATURE PROGRAMMED BY
        MICHEL DUPUIS (PACIFIC NORTHWEST NATIONAL LABORATORY).

          --------------------
          2 ELECTRON INTEGRALS
          --------------------

 DIRECT SCF METHOD SKIPS INTEGRAL STORAGE ON DISK.
 DIRECT TRANSFORMATION SKIPS AO INTEGRAL STORAGE ON DISK.
  ...... END OF TWO-ELECTRON INTEGRALS .....
 STEP CPU TIME =     0.00 TOTAL CPU TIME =          0.0 (      0.0 MIN)
 TOTAL WALL CLOCK TIME=          0.1 SECONDS, CPU UTILIZATION IS    50.00%

          --------------------------
             R-B3LYP SCF CALCULATION
          --------------------------

     NUCLEAR ENERGY =        70.6819669371
     MAXIT =  200     NPUNCH=    2
     EXTRAP=T  DAMP=F  SHIFT=F  RSTRCT=F  DIIS=T  DEM=F  SOSCF=F
         DENSITY MATRIX CONVERGENCE THRESHOLD=  2.00E-05
     COARSE -> FINE DFT GRID SWITCH THRESHOLD=  3.00E-04 (SWITCH IN $DFT)
                   HF -> DFT SWITCH THRESHOLD=  5.00E-03 (SWOFF IN $DFT)
     MEMORY REQUIRED FOR RHF ITERS=    607760 WORDS.

 DIRECT SCF CALCULATION, SCHWRZ=T   FDIFF=T,  DIRTHR=  0.00E+00 NITDIR=10
 SCHWARZ INEQUALITY OVERHEAD:      1539 INTEGRALS, T=        0.00

 DFT CODE IS SWITCHING FROM THE FINE GRID NRAD= 96,  NLEB=  590
                      TO THE COARSE GRID NRAD0= 24, NLEB0=  110

     EXCHANGE FUNCTIONAL   =B88&HFX   
     CORRELATION FUNCTIONAL=LYP88&VWN5
     DFT THRESHOLD         =.883E-08
     GRID CHANGE THRESHOLD =.300E-03
 FOR AN EULER-MACLAURIN QUADRATURE USING  96 RADIAL POINTS:
 SMALLEST GAUSSIAN PRIMITIVE EXPONENT=        0.1612777588 OF TYPE -S-
 ON ATOM NUMBER   4 HAS RADIAL NORMALIZATION=  1.000000
  LARGEST GAUSSIAN PRIMITIVE EXPONENT=     4173.5114600000 OF TYPE -S-
 ON ATOM NUMBER   3 HAS RADIAL NORMALIZATION=  1.000000
 DFT IS SWITCHED OFF, PERFORMING PURE SCF UNTIL SWOFF THRESHOLD IS REACHED.

                                                                                   NONZERO     BLOCKS
 ITER EX DEM     TOTAL ENERGY        E CHANGE  DENSITY CHANGE    DIIS ERROR      INTEGRALS    SKIPPED
          * * *   INITIATING DIIS PROCEDURE   * * *
   1  0  0     -132.6485747367  -132.6485747367   0.254813021   0.476318914         620535        558
   2  1  0     -133.0148482465    -0.3662735098   0.135322696   0.103666309         620454        623
   3  2  0     -133.0499187463    -0.0350704998   0.062456260   0.066613554         619975        744
   4  3  0     -133.0655887982    -0.0156700519   0.016747082   0.006491086         619455        851
   5  4  0     -133.0661241536    -0.0005353553   0.005261692   0.002479601         617864       1022
   6  5  0     -133.0661791117    -0.0000549582   0.001749230   0.000661984         615847       1279
 CONVERGED TO SWOFF, SO DFT CALCULATION IS NOW SWITCHED ON.
          * * *   INITIATING DIIS PROCEDURE   * * *
   7  6  0     -133.8452312427    -0.7790521310   0.073232744   0.100397491         620525        564
   8  7  0     -133.8572991810    -0.0120679383   0.039465978   0.027971384         620021        730
   9  8  0     -133.8570066759     0.0002925051   0.028576655   0.027992451         619249        852
  10  9  0     -133.8594835839    -0.0024769080   0.010070157   0.008783206         618653        952
  11 10  0     -133.8597476546    -0.0002640707   0.000545436   0.000640123         616280       1232
  12 11  0     -133.8597491122    -0.0000014576   0.000113451   0.000071760         610898       1810
 DFT CODE IS SWITCHING BACK TO THE FINE GRID
          * * *   INITIATING DIIS PROCEDURE   * * *
  13 12  0     -133.8597712062    -0.0000220940   0.002602016   0.000710603         620519        563
  14 13  0     -133.8597758157    -0.0000046095   0.000573442   0.000245271         614597       1474
  15 14  0     -133.8597755713     0.0000002444   0.000395906   0.000319432         608298       2111
  16 15  0     -133.8597760082    -0.0000004369   0.000067977   0.000082156         605183       2361
  17 16  0     -133.8597760197    -0.0000000115   0.000016034   0.000015163         594999       3133
  18 17  0     -133.8597760211    -0.0000000014   0.000001903   0.000002263         584076       3874

          -----------------
          DENSITY CONVERGED
          -----------------
     TIME TO FORM FOCK OPERATORS=       5.4 SECONDS (       0.3 SEC/ITER)
     FOCK TIME ON FIRST ITERATION=       0.0, LAST ITERATION=       0.8
     TIME TO SOLVE SCF EQUATIONS=       0.1 SECONDS (       0.0 SEC/ITER)

 FINAL R-B3LYP ENERGY IS     -133.8597760211 AFTER  18 ITERATIONS
 DFT EXCHANGE + CORRELATION ENERGY =       -15.7496330454
 TOTAL ELECTRON NUMBER             =        24.0000078874

          ------------
          EIGENVECTORS
          ------------

                      1          2          3          4          5
                  -14.3146   -10.2321   -10.1893    -0.8890    -0.7301
                     A'         A'         A'         A'         A'  
    1  C  1  S   -0.000003   0.002933   0.992869  -0.048548  -0.179792
    2  C  1  S    0.000040  -0.000041   0.050269   0.089294   0.346363
    3  C  1  X    0.000020   0.000312  -0.000035  -0.032827  -0.022769
    4  C  1  Y    0.000055   0.000116  -0.000078  -0.032047  -0.002057
    5  C  1  Z    0.000000   0.000000   0.000000   0.000000   0.000000
    6  C  1  S   -0.000394   0.003371  -0.017529   0.065817   0.315047
    7  C  1  X    0.000261  -0.001899   0.001101   0.001451   0.000359
    8  C  1  Y   -0.000010  -0.000714   0.000761  -0.016490   0.004707
    9  C  1  Z    0.000000   0.000000   0.000000   0.000000   0.000000
   10  C  1 XX   -0.000022  -0.000415  -0.009274   0.002947  -0.000908
   11  C  1 YY   -0.000059  -0.000218  -0.009215   0.001741  -0.000594
   12  C  1 ZZ   -0.000018  -0.000109  -0.009200  -0.001370   0.000928
   13  C  1 XY   -0.000033  -0.000174  -0.000051   0.005161  -0.003169
   14  C  1 XZ    0.000000   0.000000   0.000000   0.000000   0.000000
   15  C  1 YZ    0.000000   0.000000   0.000000   0.000000   0.000000
   16  C  2  S    0.000050   0.992770  -0.003173  -0.133514  -0.050117
   17  C  2  S    0.000389   0.048669  -0.000408   0.263078   0.097948
   18  C  2  X   -0.000046   0.000092  -0.000165   0.018236   0.089396
   19  C  2  Y   -0.000031  -0.000151  -0.000039  -0.136707   0.164852
   20  C  2  Z    0.000000   0.000000   0.000000   0.000000   0.000000
   21  C  2  S   -0.000544  -0.011453   0.004388   0.120960   0.086966
   22  C  2  X    0.000542  -0.001056   0.002296  -0.001726   0.019688
   23  C  2  Y    0.000784  -0.001301   0.001603   0.019350   0.028585
   24  C  2  Z    0.000000   0.000000   0.000000   0.000000   0.000000
   25  C  2 XX    0.000017  -0.009426  -0.000294  -0.008701   0.013805
   26  C  2 YY   -0.000509  -0.008867  -0.000229   0.014675  -0.010098
   27  C  2 ZZ   -0.000016  -0.009641  -0.000137  -0.016919  -0.003864
   28  C  2 XY    0.000043   0.000039  -0.000192  -0.001333   0.008083
   29  C  2 XZ    0.000000   0.000000   0.000000   0.000000   0.000000
   30  C  2 YZ    0.000000   0.000000   0.000000   0.000000   0.000000
   31  N  3  S    0.992757  -0.000281  -0.000025  -0.170262   0.082507
   32  N  3  S    0.034504  -0.000226  -0.000133   0.352322  -0.175726
   33  N  3  X    0.001202  -0.000023  -0.000005   0.079062  -0.035476
   34  N  3  Y    0.000950  -0.000278  -0.000048   0.121798  -0.005981
   35  N  3  Z    0.000000   0.000000   0.000000   0.000000   0.000000
   36  N  3  S    0.004029   0.001419   0.000424   0.345349  -0.189276
   37  N  3  X   -0.000625   0.000245  -0.000366   0.040972  -0.022419
   38  N  3  Y    0.000216  -0.000010   0.000430   0.040813   0.003182
   39  N  3  Z    0.000000   0.000000   0.000000   0.000000   0.000000
   40  N  3 XX   -0.008141  -0.000187  -0.000015   0.000530  -0.002446
   41  N  3 YY   -0.007792  -0.000441   0.000065   0.004539   0.004419
   42  N  3 ZZ   -0.008190  -0.000033  -0.000146  -0.014519   0.005441
   43  N  3 XY   -0.000004   0.000056  -0.000017  -0.001246   0.005584
   44  N  3 XZ    0.000000   0.000000   0.000000   0.000000   0.000000
   45  N  3 YZ    0.000000   0.000000   0.000000   0.000000   0.000000
   46  H  4  S    0.000004  -0.000154  -0.000037   0.023156   0.114348
   47  H  4  S   -0.000048   0.000441   0.002722   0.000660   0.025481
   48  H  5  S    0.000004  -0.000154  -0.000037   0.023156   0.114348
   49  H  5  S   -0.000048   0.000441   0.002722   0.000660   0.025481
   50  H  6  S    0.000028  -0.000127  -0.000046   0.019505   0.119237
   51  H  6  S    0.000025  -0.000067   0.002660   0.005068   0.028917
   52  H  7  S    0.000038  -0.000309  -0.000128   0.045130   0.037276
   53  H  7  S    0.000019   0.002125   0.000096  -0.002398   0.012108
   54  H  8  S    0.000274   0.000034  -0.000028   0.107420  -0.067629
   55  H  8  S   -0.000175  -0.000021   0.000365  -0.001003  -0.005685

                      6          7          8          9         10
                   -0.5839    -0.4570    -0.4416    -0.4318    -0.3784
                     A'         A'         A'         A''        A'  
    1  C  1  S    0.059828   0.015220  -0.012104   0.000000   0.008497
    2  C  1  S   -0.116358  -0.028922   0.023932   0.000000  -0.018732
    3  C  1  X   -0.136560  -0.252615   0.117866   0.000000   0.272600
    4  C  1  Y   -0.020949   0.064127   0.369892   0.000000  -0.205204
    5  C  1  Z    0.000000   0.000000   0.000000   0.422485   0.000000
    6  C  1  S   -0.146881  -0.045741   0.020930   0.000000  -0.033599
    7  C  1  X   -0.041842  -0.111428   0.046744   0.000000   0.130381
    8  C  1  Y    0.003799   0.023055   0.175684   0.000000  -0.100105
    9  C  1  Z    0.000000   0.000000   0.000000   0.196004   0.000000
   10  C  1 XX    0.010054   0.006341  -0.007652   0.000000   0.007929
   11  C  1 YY   -0.001029   0.004025   0.013552   0.000000  -0.021436
   12  C  1 ZZ   -0.006739  -0.012759  -0.000885   0.000000   0.016637
   13  C  1 XY    0.007812   0.003889  -0.014590   0.000000  -0.006477
   14  C  1 XZ    0.000000   0.000000   0.000000   0.016931   0.000000
   15  C  1 YZ    0.000000   0.000000   0.000000  -0.013176   0.000000
   16  C  2  S   -0.133233  -0.010809   0.045982   0.000000   0.007518
   17  C  2  S    0.279972   0.018357  -0.102312   0.000000  -0.026139
   18  C  2  X   -0.158589   0.037798  -0.298668   0.000000  -0.257254
   19  C  2  Y    0.071015   0.340063  -0.033794   0.000000   0.169887
   20  C  2  Z    0.000000   0.000000   0.000000   0.169966   0.000000
   21  C  2  S    0.281966   0.009013  -0.089837   0.000000   0.015680
   22  C  2  X   -0.040349   0.004199  -0.103881   0.000000  -0.104854
   23  C  2  Y    0.040549   0.128776  -0.003286   0.000000   0.050996
   24  C  2  Z    0.000000   0.000000   0.000000   0.083994   0.000000
   25  C  2 XX    0.001370   0.009211  -0.003489   0.000000   0.019026
   26  C  2 YY   -0.007332  -0.003482   0.014808   0.000000  -0.010704
   27  C  2 ZZ   -0.011537   0.001132   0.002458   0.000000   0.002546
   28  C  2 XY   -0.004676  -0.011388  -0.000015   0.000000  -0.017928
   29  C  2 XZ    0.000000   0.000000   0.000000   0.010535   0.000000
   30  C  2 YZ    0.000000   0.000000   0.000000   0.000374   0.000000
   31  N  3  S    0.055027  -0.000597  -0.053101   0.000000  -0.003811
   32  N  3  S   -0.118439  -0.007870   0.117105   0.000000   0.006415
   33  N  3  X   -0.171521   0.192219  -0.138742   0.000000  -0.020437
   34  N  3  Y    0.187001  -0.317563  -0.056181   0.000000  -0.206633
   35  N  3  Z    0.000000   0.000000   0.000000   0.098520   0.000000
   36  N  3  S   -0.160015   0.066473   0.178767   0.000000   0.009225
   37  N  3  X   -0.072817   0.091494  -0.068256   0.000000  -0.019020
   38  N  3  Y    0.063908  -0.107229  -0.041796   0.000000  -0.102024
   39  N  3  Z    0.000000   0.000000   0.000000   0.057101   0.000000
   40  N  3 XX   -0.018747   0.021679  -0.008572   0.000000   0.006267
   41  N  3 YY    0.018273  -0.015597  -0.005106   0.000000  -0.006550
   42  N  3 ZZ    0.004426  -0.002970   0.001421   0.000000   0.002113
   43  N  3 XY    0.005678  -0.013544  -0.016526   0.000000  -0.017948
   44  N  3 XZ    0.000000   0.000000   0.000000   0.005322   0.000000
   45  N  3 YZ    0.000000   0.000000   0.000000   0.007882   0.000000
   46  H  4  S   -0.081345  -0.103217  -0.000903   0.215833   0.128667
   47  H  4  S   -0.038909  -0.068619   0.002625   0.170739   0.122103
   48  H  5  S   -0.081345  -0.103217  -0.000903  -0.215833   0.128667
   49  H  5  S   -0.038909  -0.068619   0.002625  -0.170739   0.122103
   50  H  6  S   -0.045279   0.050582   0.222258   0.000000  -0.184413
   51  H  6  S   -0.020819   0.044016   0.164254   0.000000  -0.157589
   52  H  7  S    0.183791   0.101891   0.085066   0.000000   0.201485
   53  H  7  S    0.081920   0.078154   0.072960   0.000000   0.183166
   54  H  8  S   -0.168716   0.189595  -0.012162   0.000000   0.072393
   55  H  8  S   -0.077781   0.134845  -0.017257   0.000000   0.090193

                     11         12         13         14         15
                   -0.2961    -0.2522    -0.0024     0.1017     0.1200
                     A''        A'         A''        A'         A'  
    1  C  1  S    0.000000   0.032271   0.000000  -0.100736   0.020229
    2  C  1  S    0.000000  -0.066361   0.000000   0.114938  -0.020576
    3  C  1  X    0.000000   0.158007   0.000000   0.174281   0.040138
    4  C  1  Y    0.000000   0.137103   0.000000   0.065636  -0.246922
    5  C  1  Z   -0.152289   0.000000   0.017627   0.000000   0.000000
    6  C  1  S    0.000000  -0.222759   0.000000   1.684210  -0.459997
    7  C  1  X    0.000000   0.146322   0.000000   0.454768   0.079462
    8  C  1  Y    0.000000   0.046538   0.000000   0.226809  -0.632770
    9  C  1  Z   -0.095835   0.000000   0.193696   0.000000   0.000000
   10  C  1 XX    0.000000  -0.004368   0.000000   0.000033  -0.008093
   11  C  1 YY    0.000000   0.007694   0.000000  -0.016696   0.014884
   12  C  1 ZZ    0.000000   0.000644   0.000000  -0.008367  -0.003335
   13  C  1 XY    0.000000  -0.003888   0.000000   0.007401  -0.003727
   14  C  1 XZ   -0.019014   0.000000  -0.030873   0.000000   0.000000
   15  C  1 YZ   -0.001916   0.000000  -0.005413   0.000000   0.000000
   16  C  2  S    0.000000  -0.020432   0.000000  -0.003750   0.080015
   17  C  2  S    0.000000   0.047863   0.000000   0.045976  -0.133651
   18  C  2  X    0.000000  -0.134303   0.000000   0.024331   0.219826
   19  C  2  Y    0.000000  -0.124373   0.000000   0.048925  -0.128207
   20  C  2  Z    0.344567   0.000000   0.461877   0.000000   0.000000
   21  C  2  S    0.000000   0.002004   0.000000  -0.038721  -1.188420
   22  C  2  X    0.000000   0.027786   0.000000  -0.062140   0.561575
   23  C  2  Y    0.000000   0.049673   0.000000   0.095384  -0.232508
   24  C  2  Z    0.238472   0.000000   0.536638   0.000000   0.000000
   25  C  2 XX    0.000000  -0.002479   0.000000   0.003770   0.012859
   26  C  2 YY    0.000000  -0.003769   0.000000   0.012115   0.000811
   27  C  2 ZZ    0.000000  -0.002806   0.000000  -0.004176  -0.000470
   28  C  2 XY    0.000000  -0.032694   0.000000  -0.009836  -0.011491
   29  C  2 XZ   -0.004369   0.000000  -0.001594   0.000000   0.000000
   30  C  2 YZ   -0.024148   0.000000   0.029157   0.000000   0.000000
   31  N  3  S    0.000000   0.080868   0.000000  -0.054282  -0.035467
   32  N  3  S    0.000000  -0.169131   0.000000   0.086649   0.043089
   33  N  3  X    0.000000   0.437814   0.000000   0.221168   0.036296
   34  N  3  Y    0.000000   0.249398   0.000000  -0.070190  -0.040476
   35  N  3  Z    0.451064   0.000000  -0.415531   0.000000   0.000000
   36  N  3  S    0.000000  -0.334844   0.000000   0.778878   0.510327
   37  N  3  X    0.000000   0.283974   0.000000   0.473730   0.035696
   38  N  3  Y    0.000000   0.229955   0.000000  -0.145850   0.005749
   39  N  3  Z    0.310143   0.000000  -0.505097   0.000000   0.000000
   40  N  3 XX    0.000000   0.027450   0.000000   0.001216  -0.004761
   41  N  3 YY    0.000000   0.012164   0.000000  -0.015725  -0.014506
   42  N  3 ZZ    0.000000  -0.007528   0.000000  -0.018974  -0.012371
   43  N  3 XY    0.000000   0.014823   0.000000   0.000751   0.013188
   44  N  3 XZ    0.017909   0.000000  -0.018627   0.000000   0.000000
   45  N  3 YZ    0.023921   0.000000   0.010149   0.000000   0.000000
   46  H  4  S   -0.104911   0.006530  -0.092556  -0.007000  -0.013360
   47  H  4  S   -0.094441   0.025573  -0.366646  -0.848629  -0.174951
   48  H  5  S    0.104911   0.006530   0.092556  -0.007000  -0.013360
   49  H  5  S    0.094441   0.025573   0.366646  -0.848629  -0.174951
   50  H  6  S    0.000000   0.058935   0.000000  -0.056020   0.062206
   51  H  6  S    0.000000   0.122113   0.000000  -0.843706   1.121670
   52  H  7  S    0.000000   0.112613   0.000000   0.061123   0.091796
   53  H  7  S    0.000000   0.158102   0.000000   0.027590   1.446332
   54  H  8  S    0.000000   0.144145   0.000000  -0.043243  -0.076373
   55  H  8  S    0.000000   0.165867   0.000000  -1.069946  -0.540510

                     16         17         18         19         20
                    0.1375     0.1765     0.1896     0.2719     0.3359
                     A'         A''        A'         A'         A'  
    1  C  1  S   -0.109601   0.000000   0.056388   0.062190   0.006875
    2  C  1  S    0.124050   0.000000  -0.064171  -0.022896   0.028909
    3  C  1  X    0.078117   0.000000   0.227892   0.142220   0.011916
    4  C  1  Y   -0.078533   0.000000  -0.228085   0.169669   0.043295
    5  C  1  Z    0.000000  -0.434479   0.000000   0.000000   0.000000
    6  C  1  S    1.904170   0.000000  -0.936920  -1.303343  -0.753905
    7  C  1  X    0.185155   0.000000   1.083922   1.211776   1.006791
    8  C  1  Y   -0.506936   0.000000  -0.770277   1.387654  -0.195528
    9  C  1  Z    0.000000  -1.399351   0.000000   0.000000   0.000000
   10  C  1 XX   -0.016276   0.000000   0.015373   0.018864   0.036752
   11  C  1 YY    0.011369   0.000000   0.007790   0.012751  -0.021466
   12  C  1 ZZ   -0.017552   0.000000  -0.011279  -0.016567  -0.010309
   13  C  1 XY   -0.004629   0.000000   0.009117   0.040532  -0.017479
   14  C  1 XZ    0.000000   0.002562   0.000000   0.000000   0.000000
   15  C  1 YZ    0.000000  -0.013331   0.000000   0.000000   0.000000
   16  C  2  S    0.027850   0.000000  -0.097012  -0.080628   0.052964
   17  C  2  S    0.007148   0.000000   0.166192   0.066653   0.054232
   18  C  2  X   -0.059204   0.000000  -0.063648   0.459873   0.084881
   19  C  2  Y   -0.106700   0.000000   0.155478   0.027047   0.162702
   20  C  2  Z    0.000000   0.136450   0.000000   0.000000   0.000000
   21  C  2  S   -0.568584   0.000000   1.477663   2.083869  -1.934871
   22  C  2  X   -0.314304   0.000000  -0.228652   1.700761   0.674446
   23  C  2  Y   -0.364352   0.000000   0.811582  -0.451017   2.936848
   24  C  2  Z    0.000000   0.431869   0.000000   0.000000   0.000000
   25  C  2 XX    0.025702   0.000000   0.009502  -0.004422  -0.011478
   26  C  2 YY   -0.009307   0.000000  -0.017335  -0.001073   0.033417
   27  C  2 ZZ   -0.001705   0.000000  -0.001876   0.004783  -0.013691
   28  C  2 XY    0.010002   0.000000  -0.012751  -0.002172   0.010435
   29  C  2 XZ    0.000000  -0.009987   0.000000   0.000000   0.000000
   30  C  2 YZ    0.000000  -0.004999   0.000000   0.000000   0.000000
   31  N  3  S    0.062443   0.000000   0.001557   0.051121  -0.091297
   32  N  3  S   -0.092672   0.000000  -0.038433  -0.055761   0.110402
   33  N  3  X   -0.186591   0.000000  -0.004478  -0.104964  -0.186200
   34  N  3  Y    0.085200   0.000000  -0.118835  -0.062604   0.276861
   35  N  3  Z    0.000000  -0.142311   0.000000   0.000000   0.000000
   36  N  3  S   -0.898265   0.000000   0.307587  -1.233853   2.580041
   37  N  3  X   -0.395408   0.000000   0.102486  -0.596083  -0.325368
   38  N  3  Y    0.116980   0.000000  -0.069022  -0.491597   1.697440
   39  N  3  Z    0.000000  -0.185015   0.000000   0.000000   0.000000
   40  N  3 XX    0.011319   0.000000  -0.009315  -0.007144  -0.030122
   41  N  3 YY    0.019233   0.000000   0.003278   0.001887   0.017541
   42  N  3 ZZ    0.012760   0.000000  -0.006724   0.029161  -0.032645
   43  N  3 XY   -0.003735   0.000000  -0.001299   0.016456   0.009866
   44  N  3 XZ    0.000000  -0.003657   0.000000   0.000000   0.000000
   45  N  3 YZ    0.000000   0.007114   0.000000   0.000000   0.000000
   46  H  4  S   -0.064136   0.062568  -0.046248  -0.093266  -0.006215
   47  H  4  S   -1.049086   1.512099  -0.538669  -0.009344  -0.271007
   48  H  5  S   -0.064136  -0.062568  -0.046248  -0.093266  -0.006215
   49  H  5  S   -1.049086  -1.512099  -0.538669  -0.009344  -0.271007
   50  H  6  S    0.074221   0.000000   0.054935  -0.054403  -0.102134
   51  H  6  S   -0.009610   0.000000   1.588085  -0.644007   0.126883
   52  H  7  S    0.019162   0.000000  -0.026907  -0.021032   0.003540
   53  H  7  S    0.165460   0.000000  -1.317512   1.053067  -0.049358
   54  H  8  S    0.101411   0.000000  -0.019785  -0.056583   0.009505
   55  H  8  S    1.100437   0.000000  -0.184191   0.555857   0.765198

                     21         22         23         24         25
                    0.5356     0.5478     0.5600     0.6190     0.6258
                     A'         A''        A'         A'         A'' 
    1  C  1  S   -0.014595   0.000000  -0.011309  -0.009003   0.000000
    2  C  1  S    0.197871   0.000000   0.131862   0.158317   0.000000
    3  C  1  X   -0.860574   0.000000   0.021562  -0.336584   0.000000
    4  C  1  Y   -0.258569   0.000000  -0.675584   0.033043   0.000000
    5  C  1  Z    0.000000  -0.440803   0.000000   0.000000  -0.637527
    6  C  1  S    0.160551   0.000000  -0.197609  -0.645587   0.000000
    7  C  1  X    1.064167   0.000000  -0.218854   0.618187   0.000000
    8  C  1  Y    0.127276   0.000000   1.460242  -0.185443   0.000000
    9  C  1  Z    0.000000   0.933296   0.000000   0.000000   1.702429
   10  C  1 XX    0.031840   0.000000   0.014459  -0.049408   0.000000
   11  C  1 YY    0.024999   0.000000  -0.094051   0.052732   0.000000
   12  C  1 ZZ   -0.034430   0.000000   0.083765   0.001572   0.000000
   13  C  1 XY    0.021672   0.000000   0.015528  -0.035937   0.000000
   14  C  1 XZ    0.000000  -0.049534   0.000000   0.000000  -0.069459
   15  C  1 YZ    0.000000   0.057659   0.000000   0.000000   0.062969
   16  C  2  S    0.056202   0.000000   0.004982   0.004397   0.000000
   17  C  2  S    0.085825   0.000000   0.024384   0.457014   0.000000
   18  C  2  X    0.044994   0.000000  -0.003764  -0.227643   0.000000
   19  C  2  Y    0.223250   0.000000  -0.285652  -0.785316   0.000000
   20  C  2  Z    0.000000  -0.813832   0.000000   0.000000   0.605107
   21  C  2  S   -0.150763   0.000000   1.081887   0.224555   0.000000
   22  C  2  X   -0.352726   0.000000   0.186582   0.477948   0.000000
   23  C  2  Y   -0.258155   0.000000  -0.485500   0.908208   0.000000
   24  C  2  Z    0.000000   0.638678   0.000000   0.000000  -1.215551
   25  C  2 XX    0.117355   0.000000  -0.003435   0.098621   0.000000
   26  C  2 YY    0.042600   0.000000   0.042378   0.011376   0.000000
   27  C  2 ZZ   -0.054691   0.000000  -0.004841  -0.011363   0.000000
   28  C  2 XY    0.073713   0.000000   0.064124  -0.021575   0.000000
   29  C  2 XZ    0.000000  -0.004715   0.000000   0.000000   0.028069
   30  C  2 YZ    0.000000   0.030390   0.000000   0.000000  -0.013838
   31  N  3  S   -0.015844   0.000000   0.042594   0.029460   0.000000
   32  N  3  S    0.102961   0.000000   0.023372   0.052137   0.000000
   33  N  3  X    0.061979   0.000000   0.136479  -0.049478   0.000000
   34  N  3  Y    0.029720   0.000000   0.242725  -0.028538   0.000000
   35  N  3  Z    0.000000  -0.122710   0.000000   0.000000   0.244016
   36  N  3  S   -0.058295   0.000000  -1.030301   0.070264   0.000000
   37  N  3  X    0.076345   0.000000  -0.191126   0.080351   0.000000
   38  N  3  Y    0.223670   0.000000  -0.741700  -0.664476   0.000000
   39  N  3  Z    0.000000   0.034635   0.000000   0.000000   0.028166
   40  N  3 XX    0.048732   0.000000   0.004779  -0.050226   0.000000
   41  N  3 YY   -0.026429   0.000000   0.023899   0.148410   0.000000
   42  N  3 ZZ   -0.002276   0.000000   0.005716  -0.014872   0.000000
   43  N  3 XY   -0.029876   0.000000  -0.056069   0.011173   0.000000
   44  N  3 XZ    0.000000   0.008597   0.000000   0.000000   0.025470
   45  N  3 YZ    0.000000  -0.053603   0.000000   0.000000   0.033185
   46  H  4  S   -0.149127  -0.292624   0.162433  -0.021893  -0.290018
   47  H  4  S   -0.071903  -0.230164   0.078016  -0.041490  -0.354630
   48  H  5  S   -0.149127   0.292624   0.162433  -0.021893   0.290018
   49  H  5  S   -0.071903   0.230164   0.078016  -0.041490   0.354630
   50  H  6  S    0.028782   0.000000  -0.454093   0.156721   0.000000
   51  H  6  S    0.077490   0.000000  -0.296499   0.003978   0.000000
   52  H  7  S    0.135527   0.000000  -0.227811   0.333006   0.000000
   53  H  7  S   -0.031113   0.000000   0.228646  -0.179326   0.000000
   54  H  8  S    0.176702   0.000000   0.185669  -0.280519   0.000000
   55  H  8  S   -0.139983   0.000000   0.160963   0.080881   0.000000

                     26         27         28         29         30
                    0.7342     0.7472     0.7821     0.7943     0.8616
                     A'         A'         A''        A'         A'  
    1  C  1  S   -0.015458  -0.029100   0.000000  -0.044618   0.032624
    2  C  1  S   -0.053238   0.170355   0.000000   0.018952  -0.001190
    3  C  1  X    0.003628   0.093241   0.000000  -0.355929  -0.128114
    4  C  1  Y   -0.093765  -0.475965   0.000000   0.315034   0.275764
    5  C  1  Z    0.000000   0.000000   0.084939   0.000000   0.000000
    6  C  1  S    0.023287  -1.068420   0.000000  -0.566488  -0.520685
    7  C  1  X    0.216333   0.142059   0.000000   1.541223   0.057532
    8  C  1  Y    0.374250   1.869836   0.000000  -0.605677   0.011892
    9  C  1  Z    0.000000   0.000000   0.271799   0.000000   0.000000
   10  C  1 XX   -0.037703  -0.104359   0.000000   0.020054   0.024250
   11  C  1 YY    0.013996   0.038772   0.000000  -0.052530  -0.060618
   12  C  1 ZZ    0.000623   0.042632   0.000000  -0.017500   0.051108
   13  C  1 XY    0.020276  -0.012325   0.000000  -0.092300   0.001203
   14  C  1 XZ    0.000000   0.000000  -0.041450   0.000000   0.000000
   15  C  1 YZ    0.000000   0.000000   0.012369   0.000000   0.000000
   16  C  2  S   -0.058952   0.024258   0.000000  -0.029562  -0.016675
   17  C  2  S    0.009769  -0.575761   0.000000  -0.787572   1.049668
   18  C  2  X   -0.150528  -0.741425   0.000000  -0.439175  -0.626682
   19  C  2  Y   -0.371712   0.284390   0.000000  -0.230043   0.390490
   20  C  2  Z    0.000000   0.000000   0.304423   0.000000   0.000000
   21  C  2  S   -0.228926   1.457158   0.000000   1.804087  -1.689230
   22  C  2  X    0.286022   2.472624   0.000000   0.750338   1.962835
   23  C  2  Y    0.642629  -0.996047   0.000000   1.228065  -1.194178
   24  C  2  Z    0.000000   0.000000  -0.877566   0.000000   0.000000
   25  C  2 XX    0.024758   0.017758   0.000000  -0.135340   0.004000
   26  C  2 YY   -0.197670   0.001891   0.000000  -0.041237   0.111285
   27  C  2 ZZ    0.070445  -0.047454   0.000000   0.027908   0.060315
   28  C  2 XY    0.078059  -0.023739   0.000000   0.065116   0.068857
   29  C  2 XZ    0.000000   0.000000   0.046388   0.000000   0.000000
   30  C  2 YZ    0.000000   0.000000   0.053684   0.000000   0.000000
   31  N  3  S    0.021846  -0.023271   0.000000  -0.002561   0.022032
   32  N  3  S    0.016409   0.088569   0.000000  -0.253669  -0.055776
   33  N  3  X   -0.521418  -0.160599   0.000000   0.378745  -0.049384
   34  N  3  Y   -0.628033   0.090279   0.000000  -0.008449   0.111207
   35  N  3  Z    0.000000   0.000000  -0.925926   0.000000   0.000000
   36  N  3  S    0.299938  -0.779196   0.000000   0.714211  -0.280547
   37  N  3  X    0.409818  -0.184123   0.000000  -0.422914  -0.393715
   38  N  3  Y    0.866556  -0.207110   0.000000   0.018556  -0.368265
   39  N  3  Z    0.000000   0.000000   1.298414   0.000000   0.000000
   40  N  3 XX    0.048732  -0.016266   0.000000  -0.073404   0.025896
   41  N  3 YY    0.156812  -0.077202   0.000000  -0.058397  -0.007051
   42  N  3 ZZ   -0.018056   0.080327   0.000000  -0.019204  -0.045448
   43  N  3 XY   -0.079995   0.001661   0.000000  -0.004215  -0.052119
   44  N  3 XZ    0.000000   0.000000   0.013560   0.000000   0.000000
   45  N  3 YZ    0.000000   0.000000  -0.030529   0.000000   0.000000
   46  H  4  S   -0.116768  -0.179458  -0.175167  -0.199153   0.296461
   47  H  4  S    0.022723   0.259730   0.063705  -0.559034  -0.207522
   48  H  5  S   -0.116768  -0.179458   0.175167  -0.199153   0.296461
   49  H  5  S    0.022723   0.259730  -0.063705  -0.559034  -0.207522
   50  H  6  S   -0.084150  -0.037144   0.000000  -0.260246  -0.066872
   51  H  6  S   -0.322585  -0.958427   0.000000   0.610307   0.323079
   52  H  7  S   -0.298553   0.317267   0.000000  -0.608939  -0.398173
   53  H  7  S    0.318181   0.990551   0.000000   0.118008   2.241695
   54  H  8  S    0.411632  -0.237704   0.000000  -0.153259   0.268036
   55  H  8  S   -0.245034   0.094650   0.000000   0.012930  -0.369027

                     31         32         33         34         35
                    0.8651     0.9085     0.9295     0.9546     1.0148
                     A''        A'         A'         A'         A'  
    1  C  1  S    0.000000  -0.002940   0.026242   0.031716  -0.015170
    2  C  1  S    0.000000  -0.181899  -0.739425  -1.010226  -0.318347
    3  C  1  X    0.000000  -0.365395  -0.114589  -0.338375   0.032319
    4  C  1  Y    0.000000   0.485525  -0.218827  -0.277791   0.045233
    5  C  1  Z    0.835241   0.000000   0.000000   0.000000   0.000000
    6  C  1  S    0.000000   0.470016   1.087050   2.159890  -0.180871
    7  C  1  X    0.000000   0.445247   0.634514   0.518928   0.324318
    8  C  1  Y    0.000000  -0.519092   0.130950   0.681263   0.409255
    9  C  1  Z   -1.359632   0.000000   0.000000   0.000000   0.000000
   10  C  1 XX    0.000000  -0.039321  -0.073373  -0.090247  -0.107422
   11  C  1 YY    0.000000  -0.154710   0.052065  -0.063023  -0.007620
   12  C  1 ZZ    0.000000   0.157316  -0.092699   0.035668   0.037777
   13  C  1 XY    0.000000   0.039158  -0.097738  -0.048017   0.026192
   14  C  1 XZ   -0.195097   0.000000   0.000000   0.000000   0.000000
   15  C  1 YZ    0.057495   0.000000   0.000000   0.000000   0.000000
   16  C  2  S    0.000000   0.006465  -0.012029  -0.022255  -0.011081
   17  C  2  S    0.000000  -0.557382  -0.509804  -0.053648   0.029949
   18  C  2  X    0.000000   0.129650   0.020807  -0.048012  -0.143572
   19  C  2  Y    0.000000  -0.052135  -0.066063   0.018020  -0.247793
   20  C  2  Z   -0.019622   0.000000   0.000000   0.000000   0.000000
   21  C  2  S    0.000000   1.476656   1.448481  -0.284435  -0.931704
   22  C  2  X    0.000000  -0.359180   0.022311   0.255807   1.743514
   23  C  2  Y    0.000000  -0.509921   0.406452   0.215486   1.037449
   24  C  2  Z    0.182173   0.000000   0.000000   0.000000   0.000000
   25  C  2 XX    0.000000  -0.020873  -0.082953  -0.033791   0.124898
   26  C  2 YY    0.000000   0.006308   0.021842  -0.061497  -0.098236
   27  C  2 ZZ    0.000000  -0.034001  -0.003269   0.048048  -0.041142
   28  C  2 XY    0.000000  -0.014458   0.011130  -0.041197  -0.144691
   29  C  2 XZ    0.090585   0.000000   0.000000   0.000000   0.000000
   30  C  2 YZ    0.026048   0.000000   0.000000   0.000000   0.000000
   31  N  3  S    0.000000   0.003611   0.005746  -0.011802   0.016154
   32  N  3  S    0.000000  -0.172173  -0.420203   0.263229  -0.421333
   33  N  3  X    0.000000  -0.434244  -0.345023   0.244907   0.434153
   34  N  3  Y    0.000000   0.097989   0.452517  -0.380723  -0.241815
   35  N  3  Z    0.205676   0.000000   0.000000   0.000000   0.000000
   36  N  3  S    0.000000  -0.214861   0.888358  -0.463409   1.214700
   37  N  3  X    0.000000   0.700881   0.473001  -0.399950  -1.688454
   38  N  3  Y    0.000000  -0.546704  -0.711434   0.784582   1.174699
   39  N  3  Z   -0.273732   0.000000   0.000000   0.000000   0.000000
   40  N  3 XX    0.000000  -0.008267  -0.006249  -0.024747   0.101275
   41  N  3 YY    0.000000  -0.078467  -0.116874   0.070207  -0.054847
   42  N  3 ZZ    0.000000   0.010867  -0.104558   0.106454  -0.199277
   43  N  3 XY    0.000000   0.028699  -0.043828   0.057349   0.053147
   44  N  3 XZ    0.014897   0.000000   0.000000   0.000000   0.000000
   45  N  3 YZ    0.001066   0.000000   0.000000   0.000000   0.000000
   46  H  4  S   -0.686806   0.375107   0.105229   0.503591   0.008778
   47  H  4  S    1.436679  -0.727049  -0.419507  -0.949977  -0.158878
   48  H  5  S    0.686806   0.375107   0.105229   0.503591   0.008778
   49  H  5  S   -1.436679  -0.727049  -0.419507  -0.949977  -0.158878
   50  H  6  S    0.000000  -0.679910   0.685214   0.295404  -0.118629
   51  H  6  S    0.000000   1.065858  -0.912101  -0.989034  -0.258535
   52  H  7  S    0.000000   0.436960  -0.098854  -0.102283   0.538268
   53  H  7  S    0.000000  -0.686478  -0.253229   0.191083   0.136071
   54  H  8  S    0.000000   0.060150   0.514733  -0.490499   0.630798
   55  H  8  S    0.000000  -0.617332  -1.147036   1.144224   0.421065

                     36         37         38         39         40
                    1.2717     1.3179     1.4038     1.4937     1.7361
                     A'         A'         A''        A''        A'' 
    1  C  1  S   -0.125254   0.069104   0.000000   0.000000   0.000000
    2  C  1  S   -1.790856   0.819695   0.000000   0.000000   0.000000
    3  C  1  X    0.110845  -0.012479   0.000000   0.000000   0.000000
    4  C  1  Y    0.111969   0.151939   0.000000   0.000000   0.000000
    5  C  1  Z    0.000000   0.000000   0.128825   0.019130   0.063424
    6  C  1  S    5.868000  -3.753983   0.000000   0.000000   0.000000
    7  C  1  X   -1.052814   1.002430   0.000000   0.000000   0.000000
    8  C  1  Y   -0.602579   0.512884   0.000000   0.000000   0.000000
    9  C  1  Z    0.000000   0.000000   0.084139  -0.173374  -0.256816
   10  C  1 XX   -0.078384  -0.114807   0.000000   0.000000   0.000000
   11  C  1 YY   -0.089095   0.017331   0.000000   0.000000   0.000000
   12  C  1 ZZ   -0.077538   0.174864   0.000000   0.000000   0.000000
   13  C  1 XY    0.053184   0.016823   0.000000   0.000000   0.000000
   14  C  1 XZ    0.000000   0.000000   0.268864  -0.024246   0.218214
   15  C  1 YZ    0.000000   0.000000   0.533290   0.169403   0.365684
   16  C  2  S    0.042205  -0.037808   0.000000   0.000000   0.000000
   17  C  2  S    0.332108  -0.857091   0.000000   0.000000   0.000000
   18  C  2  X   -0.034504  -0.061220   0.000000   0.000000   0.000000
   19  C  2  Y    0.089569  -0.026339   0.000000   0.000000   0.000000
   20  C  2  Z    0.000000   0.000000  -0.000037   0.169646   0.044955
   21  C  2  S   -1.150101   5.378696   0.000000   0.000000   0.000000
   22  C  2  X   -1.524972   1.909177   0.000000   0.000000   0.000000
   23  C  2  Y   -2.011563  -1.092087   0.000000   0.000000   0.000000
   24  C  2  Z    0.000000   0.000000  -0.018940  -0.026716   0.183917
   25  C  2 XX   -0.004171  -0.139787   0.000000   0.000000   0.000000
   26  C  2 YY    0.112927   0.027219   0.000000   0.000000   0.000000
   27  C  2 ZZ   -0.090446   0.057226   0.000000   0.000000   0.000000
   28  C  2 XY   -0.045239   0.015436   0.000000   0.000000   0.000000
   29  C  2 XZ    0.000000   0.000000  -0.508466  -0.389043  -0.033527
   30  C  2 YZ    0.000000   0.000000  -0.272764   0.574549   0.082088
   31  N  3  S    0.032615   0.082361   0.000000   0.000000   0.000000
   32  N  3  S    0.769845   1.460140   0.000000   0.000000   0.000000
   33  N  3  X   -0.013559   0.145222   0.000000   0.000000   0.000000
   34  N  3  Y    0.206585   0.148704   0.000000   0.000000   0.000000
   35  N  3  Z    0.000000   0.000000  -0.088914   0.135998   0.016887
   36  N  3  S   -2.442318  -5.096750   0.000000   0.000000   0.000000
   37  N  3  X    0.248037  -1.278462   0.000000   0.000000   0.000000
   38  N  3  Y   -1.130015  -1.424817   0.000000   0.000000   0.000000
   39  N  3  Z    0.000000   0.000000   0.011352   0.022427  -0.095123
   40  N  3 XX    0.196020   0.357014   0.000000   0.000000   0.000000
   41  N  3 YY    0.188842   0.235568   0.000000   0.000000   0.000000
   42  N  3 ZZ   -0.055281   0.078747   0.000000   0.000000   0.000000
   43  N  3 XY   -0.005912  -0.022550   0.000000   0.000000   0.000000
   44  N  3 XZ    0.000000   0.000000  -0.213632  -0.235309   0.888802
   45  N  3 YZ    0.000000   0.000000   0.256154  -0.483617  -0.177634
   46  H  4  S   -0.460294   0.242309  -0.148294   0.042309   0.016764
   47  H  4  S   -0.616519   0.085501   0.069184   0.121347   0.089986
   48  H  5  S   -0.460294   0.242309   0.148294  -0.042309  -0.016764
   49  H  5  S   -0.616519   0.085501  -0.069184  -0.121347  -0.089986
   50  H  6  S   -0.453499   0.251075   0.000000   0.000000   0.000000
   51  H  6  S   -0.513436   0.504448   0.000000   0.000000   0.000000
   52  H  7  S   -0.007444   0.037655   0.000000   0.000000   0.000000
   53  H  7  S    0.014256   0.256044   0.000000   0.000000   0.000000
   54  H  8  S    0.012135   0.450813   0.000000   0.000000   0.000000
   55  H  8  S   -0.150156   0.654458   0.000000   0.000000   0.000000

                     41         42         43         44         45
                    1.7560     1.8112     1.8986     2.1340     2.1875
                     A'         A'         A'         A''        A'  
    1  C  1  S    0.018296   0.007506   0.049524   0.000000   0.020561
    2  C  1  S   -0.283351  -0.258709   0.103665   0.000000   0.173887
    3  C  1  X    0.108920   0.151195   0.168480   0.000000  -0.032112
    4  C  1  Y    0.205270   0.024673   0.082912   0.000000   0.122262
    5  C  1  Z    0.000000   0.000000   0.000000  -0.057226   0.000000
    6  C  1  S   -0.123821  -0.158189  -1.372859   0.000000  -1.011268
    7  C  1  X    0.300544  -0.099724   0.064149   0.000000   0.134524
    8  C  1  Y   -0.508117   0.419776   0.472626   0.000000   0.884627
    9  C  1  Z    0.000000   0.000000   0.000000  -0.694290   0.000000
   10  C  1 XX   -0.392267   0.529427   0.450538   0.000000  -0.262294
   11  C  1 YY    0.229128  -0.326158  -0.052626   0.000000   0.836983
   12  C  1 ZZ    0.176088  -0.173894  -0.430218   0.000000  -0.531714
   13  C  1 XY    0.544993  -0.285070   0.176666   0.000000  -0.434958
   14  C  1 XZ    0.000000   0.000000   0.000000  -0.065362   0.000000
   15  C  1 YZ    0.000000   0.000000   0.000000   0.774358   0.000000
   16  C  2  S    0.013703   0.003733  -0.034208   0.000000  -0.041345
   17  C  2  S   -0.102005  -0.068694  -0.672074   0.000000  -0.157739
   18  C  2  X    0.036681   0.004206  -0.222373   0.000000   0.100417
   19  C  2  Y   -0.017436  -0.096121  -0.088058   0.000000   0.138703
   20  C  2  Z    0.000000   0.000000   0.000000  -0.006179   0.000000
   21  C  2  S   -0.594024   0.484458   1.922585   0.000000   1.370557
   22  C  2  X    0.232249   1.453839   0.726864   0.000000   0.939992
   23  C  2  Y    1.277454  -1.103162  -0.101064   0.000000  -0.568891
   24  C  2  Z    0.000000   0.000000   0.000000   0.403679   0.000000
   25  C  2 XX    0.236379  -0.355402   0.443701   0.000000   0.039882
   26  C  2 YY   -0.273109   0.149938   0.108912   0.000000   0.220486
   27  C  2 ZZ    0.025486   0.195520  -0.621942   0.000000  -0.312432
   28  C  2 XY    0.258866   0.404011   0.214681   0.000000  -0.260927
   29  C  2 XZ    0.000000   0.000000   0.000000   0.748936   0.000000
   30  C  2 YZ    0.000000   0.000000   0.000000   0.064151   0.000000
   31  N  3  S   -0.022979   0.025732  -0.008331   0.000000   0.004506
   32  N  3  S   -0.089177   0.168156  -0.014587   0.000000   0.172201
   33  N  3  X    0.188862   0.156766   0.012487   0.000000   0.016927
   34  N  3  Y    0.184438  -0.153031  -0.105913   0.000000  -0.110440
   35  N  3  Z    0.000000   0.000000   0.000000   0.034847   0.000000
   36  N  3  S    1.308747  -1.374656  -0.423744   0.000000  -1.058294
   37  N  3  X   -0.193102  -0.747765   0.117653   0.000000  -0.506124
   38  N  3  Y    0.423456  -0.233784  -0.288926   0.000000  -0.131430
   39  N  3  Z    0.000000   0.000000   0.000000  -0.133236   0.000000
   40  N  3 XX   -0.220030  -0.241542   0.314543   0.000000  -0.277097
   41  N  3 YY   -0.000571   0.060520   0.028903   0.000000   0.121679
   42  N  3 ZZ    0.214614   0.212072  -0.417334   0.000000   0.063097
   43  N  3 XY   -0.502177  -0.382314  -0.034994   0.000000  -0.389668
   44  N  3 XZ    0.000000   0.000000   0.000000  -0.288338   0.000000
   45  N  3 YZ    0.000000   0.000000   0.000000  -0.078049   0.000000
   46  H  4  S    0.065094  -0.013027   0.323315   0.359113   0.317954
   47  H  4  S   -0.182249  -0.041082   0.058406   0.131578   0.012471
   48  H  5  S    0.065094  -0.013027   0.323315  -0.359113   0.317954
   49  H  5  S   -0.182249  -0.041082   0.058406  -0.131578   0.012471
   50  H  6  S    0.095840   0.089137   0.136382   0.000000  -0.695760
   51  H  6  S    0.169078  -0.150184  -0.096378   0.000000   0.014293
   52  H  7  S    0.074880   0.791036  -0.150069   0.000000  -0.074162
   53  H  7  S   -0.184095   0.567545   0.021740   0.000000   0.324572
   54  H  8  S   -0.143123   0.186969  -0.351401   0.000000   0.144471
   55  H  8  S    0.087067   0.180708   0.006756   0.000000   0.232445

                     46         47         48         49         50
                    2.2127     2.2376     2.3075     2.5126     2.5198
                     A''        A'         A'         A''        A'  
    1  C  1  S    0.000000   0.018752   0.017995   0.000000   0.049072
    2  C  1  S    0.000000   0.293802   0.136896   0.000000   0.050817
    3  C  1  X    0.000000   0.026742   0.067674   0.000000   0.175707
    4  C  1  Y    0.000000  -0.080545   0.017032   0.000000   0.146727
    5  C  1  Z    0.111465   0.000000   0.000000   0.017045   0.000000
    6  C  1  S    0.000000  -0.934347  -0.409956   0.000000  -1.580561
    7  C  1  X    0.000000   0.569286   0.273820   0.000000   0.733918
    8  C  1  Y    0.000000  -0.038389   0.291690   0.000000   0.366231
    9  C  1  Z    0.252092   0.000000   0.000000   0.146140   0.000000
   10  C  1 XX    0.000000  -0.340962  -0.260842   0.000000   0.083629
   11  C  1 YY    0.000000  -0.249887   0.019217   0.000000  -0.489958
   12  C  1 ZZ    0.000000   0.584360   0.245135   0.000000   0.517952
   13  C  1 XY    0.000000   0.035407  -0.517636   0.000000  -0.502476
   14  C  1 XZ    0.930061   0.000000   0.000000   0.518854   0.000000
   15  C  1 YZ   -0.223735   0.000000   0.000000  -0.069291   0.000000
   16  C  2  S    0.000000  -0.064056   0.008273   0.000000  -0.057178
   17  C  2  S    0.000000  -0.224116   0.226488   0.000000   0.023727
   18  C  2  X    0.000000   0.162649   0.288400   0.000000   0.092779
   19  C  2  Y    0.000000   0.241262   0.155188   0.000000  -0.164978
   20  C  2  Z    0.127499   0.000000   0.000000  -0.111760   0.000000
   21  C  2  S    0.000000   0.347482  -0.449010   0.000000   2.506490
   22  C  2  X    0.000000   0.203522   0.022177   0.000000   1.167216
   23  C  2  Y    0.000000   0.509753   0.512725   0.000000  -0.284719
   24  C  2  Z    0.129449   0.000000   0.000000  -0.256350   0.000000
   25  C  2 XX    0.000000  -0.338377   0.194406   0.000000   0.708005
   26  C  2 YY    0.000000   0.596622  -0.348297   0.000000  -0.067819
   27  C  2 ZZ    0.000000  -0.503762   0.284329   0.000000  -0.642556
   28  C  2 XY    0.000000  -0.027802   0.198423   0.000000  -0.228207
   29  C  2 XZ    0.277302   0.000000   0.000000   0.173424   0.000000
   30  C  2 YZ   -0.275569   0.000000   0.000000   0.886003   0.000000
   31  N  3  S    0.000000  -0.026304  -0.030710   0.000000   0.044154
   32  N  3  S    0.000000  -0.610974  -0.223054   0.000000   0.523704
   33  N  3  X    0.000000  -0.014793   0.022865   0.000000  -0.000662
   34  N  3  Y    0.000000  -0.364576   0.140860   0.000000   0.045139
   35  N  3  Z    0.026060   0.000000   0.000000   0.059245   0.000000
   36  N  3  S    0.000000   1.263603   1.236507   0.000000  -1.982898
   37  N  3  X    0.000000   0.073846   0.558157   0.000000  -0.625399
   38  N  3  Y    0.000000   0.657895   0.097372   0.000000  -0.782468
   39  N  3  Z   -0.204510   0.000000   0.000000   0.310957   0.000000
   40  N  3 XX    0.000000  -0.186452   0.723642   0.000000  -0.141016
   41  N  3 YY    0.000000   0.380726  -0.107494   0.000000  -0.301327
   42  N  3 ZZ    0.000000  -0.432340  -0.567858   0.000000   0.558873
   43  N  3 XY    0.000000  -0.261439  -0.438723   0.000000  -0.245488
   44  N  3 XZ   -0.183690   0.000000   0.000000  -0.003419   0.000000
   45  N  3 YZ   -0.488401   0.000000   0.000000   0.826583   0.000000
   46  H  4  S   -0.538832  -0.162355  -0.078676  -0.250559  -0.163083
   47  H  4  S    0.097128   0.040404   0.059736   0.059688   0.041869
   48  H  5  S    0.538832  -0.162355  -0.078676   0.250559  -0.163083
   49  H  5  S   -0.097128   0.040404   0.059736  -0.059688   0.041869
   50  H  6  S    0.000000   0.326183  -0.119154   0.000000   0.281168
   51  H  6  S    0.000000   0.056274  -0.060225   0.000000  -0.003592
   52  H  7  S    0.000000  -0.024991   0.112909   0.000000  -0.403444
   53  H  7  S    0.000000  -0.109394  -0.027118   0.000000   0.414284
   54  H  8  S    0.000000  -0.158643  -0.886280   0.000000   0.312287
   55  H  8  S    0.000000  -0.073109   0.015044   0.000000   0.129283

                     51         52         53         54         55
                    2.7702     2.7988     3.7563     4.1028     4.3372
                     A'         A'         A'         A'         A'  
    1  C  1  S    0.039191   0.044130  -0.014673  -0.303863  -0.393196
    2  C  1  S   -0.045041  -0.188062   0.130134   1.748003   2.263609
    3  C  1  X    0.205991   0.241800  -0.042909  -0.077541   0.147261
    4  C  1  Y    0.114165   0.132908  -0.045740  -0.027207   0.080822
    5  C  1  Z    0.000000   0.000000   0.000000   0.000000   0.000000
    6  C  1  S   -0.893959  -0.515489   0.160265   1.213106   2.520753
    7  C  1  X    0.444410   0.301302   0.054672   0.147709  -0.210957
    8  C  1  Y    0.293158   0.154913  -0.205944   0.076714  -0.094040
    9  C  1  Z    0.000000   0.000000   0.000000   0.000000   0.000000
   10  C  1 XX   -0.220378  -0.459867  -0.085541  -0.995142  -1.700802
   11  C  1 YY    0.082568   0.391932  -0.055150  -1.130799  -1.540300
   12  C  1 ZZ    0.205386   0.233546  -0.008903  -1.199257  -1.458959
   13  C  1 XY   -0.388592  -0.279986   0.060856   0.089180  -0.146889
   14  C  1 XZ    0.000000   0.000000   0.000000   0.000000   0.000000
   15  C  1 YZ    0.000000   0.000000   0.000000   0.000000   0.000000
   16  C  2  S   -0.029621  -0.070182  -0.062851  -0.369163   0.281235
   17  C  2  S   -0.488406   0.481937   0.660499   2.317652  -1.791547
   18  C  2  X    0.134074   0.092006   0.007475   0.017085   0.118240
   19  C  2  Y    0.827894  -0.466506  -0.236999   0.179004  -0.079579
   20  C  2  Z    0.000000   0.000000   0.000000   0.000000   0.000000
   21  C  2  S   -0.407382   2.003942  -1.634227   1.265941  -1.448307
   22  C  2  X    0.586049   0.080275  -0.313709   0.031742  -0.259710
   23  C  2  Y    1.096910  -0.509717   1.135329  -0.099969  -0.341316
   24  C  2  Z    0.000000   0.000000   0.000000   0.000000   0.000000
   25  C  2 XX    0.565391  -0.228638  -0.313881  -1.339161   1.278627
   26  C  2 YY   -0.851077   0.575450  -0.099053  -1.662874   1.363993
   27  C  2 ZZ    0.048031  -0.551866  -0.227255  -1.398057   1.037941
   28  C  2 XY    0.547296   0.909178   0.061392   0.021962   0.227385
   29  C  2 XZ    0.000000   0.000000   0.000000   0.000000   0.000000
   30  C  2 YZ    0.000000   0.000000   0.000000   0.000000   0.000000
   31  N  3  S   -0.041722   0.052500  -0.486543   0.078617  -0.024735
   32  N  3  S   -0.114186   0.091596   0.962901  -0.027877   0.070707
   33  N  3  X    0.095848   0.033819  -0.091136   0.038856  -0.002180
   34  N  3  Y    0.381808  -0.329603  -0.155175   0.258089  -0.179630
   35  N  3  Z    0.000000   0.000000   0.000000   0.000000   0.000000
   36  N  3  S    1.638551  -1.639293   4.310452  -0.888733   0.122545
   37  N  3  X   -0.227807   0.111820   0.477935  -0.128266   0.062014
   38  N  3  Y    1.191434  -0.964789   0.804494  -0.089956  -0.158133
   39  N  3  Z    0.000000   0.000000   0.000000   0.000000   0.000000
   40  N  3 XX   -0.643157   0.353993  -1.500710   0.206321  -0.101446
   41  N  3 YY    1.036387  -0.750802  -1.551635   0.493878  -0.352290
   42  N  3 ZZ   -0.303588   0.417488  -1.581761   0.231931  -0.004746
   43  N  3 XY    0.525188   0.478743   0.027645  -0.005813   0.044372
   44  N  3 XZ    0.000000   0.000000   0.000000   0.000000   0.000000
   45  N  3 YZ    0.000000   0.000000   0.000000   0.000000   0.000000
   46  H  4  S   -0.010551  -0.018105  -0.018216   0.111589   0.048200
   47  H  4  S    0.021976  -0.023013   0.004414  -0.378108  -0.377251
   48  H  5  S   -0.010551  -0.018105  -0.018216   0.111589   0.048200
   49  H  5  S    0.021976  -0.023013   0.004414  -0.378108  -0.377251
   50  H  6  S   -0.058496  -0.168199   0.045640   0.090477   0.060844
   51  H  6  S   -0.056708   0.136509  -0.016124  -0.304315  -0.424100
   52  H  7  S    0.103409   0.210434   0.066489   0.138952  -0.052965
   53  H  7  S   -0.048624  -0.222571  -0.256632  -0.298950   0.274189
   54  H  8  S    0.349143   0.118584   0.068989  -0.003172   0.049969
   55  H  8  S    0.101979  -0.138549  -0.637017   0.115945  -0.100818
 ...... END OF RHF CALCULATION ......
 STEP CPU TIME =     5.55 TOTAL CPU TIME =          5.6 (      0.1 MIN)
 TOTAL WALL CLOCK TIME=          5.7 SECONDS, CPU UTILIZATION IS    97.89%

     ---------------------------------------------------------------------
     PROPERTIES FOR THE B3LYP    DFT FUNCTIONAL (RHF  TYPE) DENSITY MATRIX
     ---------------------------------------------------------------------

          -----------------
          ENERGY COMPONENTS
          -----------------

         WAVEFUNCTION NORMALIZATION =       1.0000000000

                ONE ELECTRON ENERGY =    -319.3870214254
                TWO ELECTRON ENERGY =     114.8452784671
           NUCLEAR REPULSION ENERGY =      70.6819669371
                                      ------------------
                       TOTAL ENERGY =    -133.8597760211

 ELECTRON-ELECTRON POTENTIAL ENERGY =     114.8452784671
  NUCLEUS-ELECTRON POTENTIAL ENERGY =    -451.9901594206
   NUCLEUS-NUCLEUS POTENTIAL ENERGY =      70.6819669371
                                      ------------------
             TOTAL POTENTIAL ENERGY =    -266.4629140164
               TOTAL KINETIC ENERGY =     132.6031379953
                 VIRIAL RATIO (V/T) =       2.0094766839

          ---------------------------------------
          MULLIKEN AND LOWDIN POPULATION ANALYSES
          ---------------------------------------

     ATOMIC MULLIKEN POPULATION IN EACH MOLECULAR ORBITAL

                      1          2          3          4          5

                  2.000000   2.000000   2.000000   2.000000   2.000000

    1            -0.000008   0.000825   1.997255   0.113195   1.081213
    2            -0.000290   1.998646   0.001128   0.583820   0.315831
    3             2.000308   0.000110   0.000006   1.199544   0.215051
    4            -0.000000   0.000014   0.000538   0.004329   0.110321
    5            -0.000000   0.000014   0.000538   0.004329   0.110321
    6             0.000000  -0.000002   0.000528   0.004267   0.124964
    7             0.000001   0.000393   0.000002   0.012502   0.013828
    8            -0.000010  -0.000001   0.000004   0.078013   0.028470

                      6          7          8          9         10

                  2.000000   2.000000   2.000000   2.000000   2.000000

    1             0.235874   0.385876   0.831966   0.995367   0.572668
    2             0.698042   0.490958   0.464090   0.200683   0.382760
    3             0.452897   0.600033   0.240499   0.063234   0.179788
    4             0.057547   0.081075   0.000076   0.370358   0.130734
    5             0.057547   0.081075   0.000076   0.370358   0.130734
    6             0.016246   0.022503   0.395864   0.000000   0.241398
    7             0.276525   0.088650   0.065232   0.000000   0.307674
    8             0.205322   0.249829   0.002197   0.000000   0.054243

                     11         12

                  2.000000   2.000000

    1             0.100284   0.182165
    2             0.674503   0.118117
    3             1.092513   1.465470
    4             0.066350   0.002837
    5             0.066350   0.002837
    6             0.000000   0.037743
    7             0.000000   0.088433
    8             0.000000   0.102397

               ----- POPULATIONS IN EACH AO -----
                             MULLIKEN      LOWDIN
              1  C  1  S      1.99184     1.97894
              2  C  1  S      0.67922     0.36397
              3  C  1  X      0.70662     0.63715
              4  C  1  Y      0.72250     0.64727
              5  C  1  Z      0.72016     0.64437
              6  C  1  S      0.63594     0.33179
              7  C  1  X      0.30114     0.43026
              8  C  1  Y      0.34785     0.45825
              9  C  1  Z      0.36344     0.48842
             10  C  1 XX     -0.00276     0.14657
             11  C  1 YY      0.00616     0.15632
             12  C  1 ZZ      0.00631     0.15529
             13  C  1 XY      0.00622     0.01059
             14  C  1 XZ      0.00960     0.01872
             15  C  1 YZ      0.00246     0.00397
             16  C  2  S      1.99177     1.97696
             17  C  2  S      0.72381     0.36872
             18  C  2  X      0.73262     0.64114
             19  C  2  Y      0.75352     0.66793
             20  C  2  Z      0.50578     0.45904
             21  C  2  S      0.47541     0.30992
             22  C  2  X      0.22268     0.38790
             23  C  2  Y      0.14156     0.31932
             24  C  2  Z      0.35791     0.39948
             25  C  2 XX      0.00416     0.16195
             26  C  2 YY      0.00762     0.19035
             27  C  2 ZZ     -0.02615     0.10382
             28  C  2 XY      0.02608     0.05680
             29  C  2 XZ      0.00234     0.00465
             30  C  2 YZ      0.00916     0.01738
             31  N  3  S      1.99228     1.97773
             32  N  3  S      0.82299     0.55311
             33  N  3  X      0.87834     0.81330
             34  N  3  Y      0.84175     0.77252
             35  N  3  Z      0.65547     0.61161
             36  N  3  S      0.95556     0.44286
             37  N  3  X      0.50510     0.60534
             38  N  3  Y      0.36593     0.47333
             39  N  3  Z      0.49166     0.52938
             40  N  3 XX      0.00271     0.18527
             41  N  3 YY     -0.00355     0.19991
             42  N  3 ZZ     -0.01607     0.16256
             43  N  3 XY      0.00866     0.01913
             44  N  3 XZ      0.00087     0.00083
             45  N  3 YZ      0.00774     0.01139
             46  H  4  S      0.52153     0.48085
             47  H  4  S      0.30265     0.34747
             48  H  5  S      0.52153     0.48085
             49  H  5  S      0.30265     0.34747
             50  H  6  S      0.52689     0.48792
             51  H  6  S      0.31662     0.35239
             52  H  7  S      0.52766     0.48840
             53  H  7  S      0.32558     0.36289
             54  H  8  S      0.51477     0.46962
             55  H  8  S      0.20569     0.28661

          ----- MULLIKEN ATOMIC OVERLAP POPULATIONS -----
          (OFF-DIAGONAL ELEMENTS NEED TO BE MULTIPLIED BY 2)

             1           2           3           4           5

    1    5.2447089
    2    0.3374738   4.7434865
    3   -0.0703129   0.6278784   6.7224325
    4    0.3709232  -0.0300960  -0.0052764   0.5308058
    5    0.3709232  -0.0300960  -0.0052764  -0.0234832   0.5308058
    6    0.3440094  -0.0180446   0.0054126  -0.0253945  -0.0253945
    7   -0.0835792   0.3707866  -0.0433269   0.0036516   0.0036516
    8   -0.0174642  -0.0731004   0.2779231   0.0030494   0.0030494

             6           7           8

    6    0.5613903
    7    0.0009388   0.5918091
    8    0.0005930   0.0093079   0.5171073

          TOTAL MULLIKEN AND LOWDIN ATOMIC POPULATIONS
       ATOM         MULL.POP.    CHARGE          LOW.POP.     CHARGE
    1 C             6.496682   -0.496682         6.471865   -0.471865
    2 C             5.928288    0.071712         6.065377   -0.065377
    3 N             7.509454   -0.509454         7.358283   -0.358283
    4 H             0.824180    0.175820         0.828320    0.171680
    5 H             0.824180    0.175820         0.828320    0.171680
    6 H             0.843511    0.156489         0.840314    0.159686
    7 H             0.853240    0.146760         0.851294    0.148706
    8 H             0.720465    0.279535         0.756228    0.243772

          -------------------------------
          BOND ORDER AND VALENCE ANALYSIS     BOND ORDER THRESHOLD=0.050
          -------------------------------

[...]
    8     H                 1.00782

 MODE(S)     1 TO     1 TREATED AS IMAGINARY.

 MODES    2 TO    7 ARE TAKEN AS ROTATIONS AND TRANSLATIONS.

 ANALYZING SYMMETRY OF NORMAL MODES...

 --- SYMMETRY FOR NORMAL MODES ---
 INCLUDING TRANSLATION AND ROTATION
   16*A'    10*A'' 
 EXCLUDING TRANSLATION AND ROTATION (SAYVETZ < 0.01)
   11*A'     5*A'' 

     FREQUENCIES IN CM**-1, IR INTENSITIES IN DEBYE**2/AMU-ANGSTROM**2,
     REDUCED MASSES IN AMU.

                            1           2           3           4           5
       FREQUENCY:       185.88 I     19.19       13.98        4.31        0.33  
        SYMMETRY:         A''         A''         A'          A''         A'' 
    REDUCED MASS:      1.10738     1.66439     3.23365     2.69185     5.28004
    IR INTENSITY:      0.00004     0.00000     0.10205     0.14450     0.00022

  1   C            X  0.00004365 -0.00012917 -0.12476838  0.00127583  0.09087426
                   Y  0.00004040 -0.00013094  0.11048629  0.00125308  0.09128447
                   Z  0.01415995 -0.04572583 -0.00001039  0.16343455  0.08794172
  2   C            X  0.00003899 -0.00012805 -0.01874390  0.00127805  0.09087153
                   Y  0.00003595 -0.00013225 -0.05603758  0.00124937  0.09129195
                   Z -0.07115738 -0.10965868 -0.00000482 -0.09856044  0.07750477
  3   N            X  0.00003012 -0.00012612  0.14699273  0.00128137  0.09085193
                   Y  0.00003605 -0.00013239 -0.07010358  0.00124907  0.09129283
                   Z  0.04965361  0.13570380 -0.00000358 -0.13161177  0.07735564
  4   H            X  0.20625955 -0.16534554 -0.09472187 -0.17287327  0.08327391
                   Y -0.37646879  0.18905914  0.18919890 -0.00938722  0.09192412
                   Z -0.22863227  0.11698233 -0.00001092  0.27994349  0.09331798
  5   H            X -0.20617474  0.16508780 -0.09474240  0.17542648  0.09849669
                   Y  0.37654820 -0.18931958  0.18921943  0.01189705  0.09066278
                   Z -0.22863314  0.11698235 -0.00002937  0.27994355  0.09332477
  6   H            X  0.00003878 -0.00013023 -0.26459049  0.00127264  0.09087329
                   Y  0.00003912 -0.00013112  0.08403486  0.00125247  0.09128386
                   Z  0.49073540 -0.31329924  0.00000409  0.13630617  0.08543132
  7   H            X  0.00004096 -0.00012882 -0.09263521  0.00127647  0.09087748
                   Y  0.00003947 -0.00013349 -0.17863830  0.00124680  0.09130202
                   Z -0.32234335 -0.39880768 -0.00000199 -0.28099628  0.06912040
  8   H            X  0.00002659 -0.00012543  0.20410966  0.00128252  0.09084499
                   Y  0.00002846 -0.00013093  0.05185022  0.00125148  0.09127608
                   Z  0.27832120  0.39690715 -0.00000637  0.05061368  0.08559941

 TRANS. SAYVETZ    X  0.00160608 -0.00549990 -0.00905890  0.05502449  3.91107716
                   Y  0.00160890 -0.00567315  0.01001076  0.05382988  3.92931756
                   Z  0.00069905 -0.04621504 -0.00027749 -0.59502402  3.49870795
               TOTAL  0.00237838  0.04688564  0.01350392  0.59998244  6.55568596

   ROT. SAYVETZ    X -0.12775378 -8.63447581 -0.00012249  7.95618571  0.26715234
                   Y  0.04942865 -0.41816684  0.00024167 -9.05462289 -0.35316395
                   Z -0.00031994  0.00014538 14.48810065  0.00030572 -0.00097163
               TOTAL  0.13698293  8.64459577 14.48810065 12.05350932  0.44282739

                            6           7           8           9          10
       FREQUENCY:         0.03        0.53      477.99      690.76      941.27  
        SYMMETRY:         A'          A''         A'          A''         A'  
    REDUCED MASS:      5.38869     5.04577     2.25369     1.43574     2.55194
    IR INTENSITY:      0.00000     0.00100     0.18144     0.15596     0.06178

  1   C            X  0.10771944 -0.05759509 -0.03819330  0.00000044  0.11074107
                   Y -0.10735725 -0.05763995 -0.10676971 -0.00000101  0.13289393
                   Z  0.00010938  0.14271237 -0.00000055  0.02124641  0.00000305
  2   C            X  0.10793744 -0.05758803 -0.11156315 -0.00000796 -0.12430835
                   Y -0.10769852 -0.05765331  0.06846982 -0.00000125 -0.02948523
                   Z  0.00013050  0.12055191 -0.00000448  0.12745971 -0.00000530
  3   N            X  0.10827935 -0.05756731  0.11857714  0.00000052 -0.02037475
                   Y -0.10772693 -0.05765458  0.05575969 -0.00000270 -0.08383380
                   Z  0.00013035  0.11912212  0.00000325 -0.09386822  0.00000332
  4   H            X  0.10779481 -0.07296237 -0.09855805  0.28331120  0.06998030
                   Y -0.10719759 -0.05755608 -0.27725789  0.19875764 -0.07446779
                   Z  0.00009888  0.15326004 -0.00318614 -0.12468525 -0.02300696
  5   H            X  0.10776424 -0.04223879 -0.09855403 -0.28331845  0.06997601
                   Y -0.10719543 -0.05772717 -0.27722413 -0.19877883 -0.07447839
                   Z  0.00009837  0.15325572  0.00317961 -0.12468549  0.02301141
  6   H            X  0.10743559 -0.05760173  0.25466776  0.00001128  0.46630380
                   Y -0.10741016 -0.05764095 -0.05232309  0.00000075  0.20253636
                   Z  0.00011421  0.13907493  0.00002291 -0.21845531 -0.00001161
  7   H            X  0.10778359 -0.05759554 -0.14850422 -0.00001032 -0.19176436
                   Y -0.10795096 -0.05766588  0.00137232 -0.00000520 -0.14025086
                   Z  0.00014791  0.10380105  0.00000067 -0.41918044  0.00001380
  8   H            X  0.10839506 -0.05756006  0.22669454  0.00000474  0.03017878
                   Y -0.10747612 -0.05763788  0.28695312  0.00000624  0.02024064
                   Z  0.00011325  0.13570119  0.00000069  0.42061420 -0.00002749

 TRANS. SAYVETZ    X  4.64751820 -2.47852828  0.00017491 -0.00008456  0.00003782
                   Y -4.63061115 -2.48134361  0.00023639 -0.00008455  0.00003401
                   Z  0.00528094  5.51770059  0.00000310 -0.00001155 -0.00000149
               TOTAL  6.56064120  6.53798045  0.00029408  0.00012013  0.00005088

   ROT. SAYVETZ    X -0.00052525  0.61628622  0.00001205 -0.00833240 -0.00000603
                   Y  0.00070925 -0.75601498 -0.00000234  0.00319801  0.00000264
                   Z  0.02977540  0.00135046 -0.01923915  0.00001783 -0.00408032
               TOTAL  0.02978847  0.97538155  0.01923915  0.00892505  0.00408033

                           11          12          13          14          15
       FREQUENCY:      1060.09     1072.68     1154.63     1289.27     1418.21  
        SYMMETRY:         A'          A''         A''         A'          A'  
    REDUCED MASS:      1.44639     1.53444     1.11092     1.30437     1.20984
    IR INTENSITY:      0.32076     0.39970     1.04682     1.79035     0.15102

  1   C            X  0.10702099 -0.00000957  0.00000051 -0.05188431 -0.10387458
                   Y -0.06353724 -0.00000132  0.00000044  0.04209269 -0.04640574
                   Z  0.00000673  0.12190865  0.02146447  0.00000009  0.00000036
  2   C            X -0.10810207  0.00000850 -0.00000036  0.07073219 -0.03269854
                   Y -0.00618246  0.00000081 -0.00000003 -0.02460395  0.00541347
                   Z -0.00000649 -0.11488816 -0.07854786 -0.00000006 -0.00000054
  3   N            X -0.00967456  0.00000123 -0.00000009 -0.06258436  0.02889325
                   Y -0.01480110  0.00000314 -0.00000028 -0.07112240 -0.01168738
                   Z  0.00000311  0.05170866 -0.03914991  0.00000003  0.00000021
  4   H            X  0.18358582  0.40535346  0.07955111 -0.03973724  0.37296845
                   Y  0.33254604  0.18300308  0.03070734 -0.13236785  0.24392635
                   Z  0.05028515 -0.11957890 -0.02312414 -0.04944953 -0.23203689
  5   H            X  0.18354332 -0.40538511 -0.07954879 -0.03973823  0.37295843
                   Y  0.33252586 -0.18304403 -0.03070524 -0.13236827  0.24391712
                   Z -0.05029699 -0.11957682 -0.02312369  0.04944916  0.23203399
  6   H            X -0.37018063  0.00000310  0.00000172  0.12389694  0.40926669
                   Y -0.14508726  0.00000015  0.00000075  0.06990525  0.06054191
                   Z -0.00001458 -0.24424573 -0.05164869  0.00000007  0.00000648
  7   H            X -0.03879379  0.00000638 -0.00000038  0.31446077  0.13461453
                   Y  0.11316099 -0.00000295 -0.00000007  0.36842558  0.28330612
                   Z  0.00000348  0.04838267  0.67574052 -0.00000039 -0.00000344
  8   H            X  0.18911187 -0.00001108  0.00000034  0.28628774 -0.06518232
                   Y  0.40259373 -0.00002259  0.00000064  0.60637571 -0.18129294
                   Z -0.00002325 -0.36705485  0.64582285 -0.00000018 -0.00000041

 TRANS. SAYVETZ    X -0.00002746 -0.00002903  0.00000451  0.00001998 -0.00007481
                   Y -0.00005328 -0.00002903  0.00000448  0.00000667 -0.00007854
                   Z -0.00000013 -0.00002393  0.00002243 -0.00000001  0.00000050
               TOTAL  0.00005994  0.00004752  0.00002331  0.00002107  0.00010847

   ROT. SAYVETZ    X -0.00000050 -0.00159695  0.00055642  0.00000003  0.00000188
                   Y  0.00000051  0.00214725 -0.00056675 -0.00000019 -0.00000085
                   Z  0.00087997  0.00000638 -0.00000081  0.00084693  0.00160001
               TOTAL  0.00087997  0.00267600  0.00079423  0.00084693  0.00160001

                           16          17          18          19          20
       FREQUENCY:      1451.61     1507.55     1517.98     1738.88     3044.63  
        SYMMETRY:         A'          A'          A''         A'          A'  
    REDUCED MASS:      1.22268     1.06360     1.04408     7.98745     1.03704
    IR INTENSITY:      0.51703     0.23212     0.15890     1.48803     0.19411

  1   C            X  0.04439916 -0.00391558  0.00000201 -0.00763765 -0.04883868
                   Y  0.02514672 -0.05837745  0.00000322 -0.02151972 -0.01309467
                   Z -0.00000002 -0.00000159 -0.05255163  0.00000012 -0.00000017
  2   C            X -0.08375345  0.02896580 -0.00000134  0.03559529 -0.00127763
                   Y  0.01177936  0.00810546 -0.00000008  0.22072610  0.00203459
                   Z  0.00000027 -0.00000078 -0.01938268 -0.00000001 -0.00000001
  3   N            X  0.05798949 -0.01173362  0.00000046 -0.01405578  0.00006705
                   Y -0.04366098 -0.01538034  0.00000014 -0.15595221  0.00010790
                   Z -0.00000010  0.00000020  0.00428438  0.00000001  0.00000001
  4   H            X -0.18920344 -0.32355749  0.06489391  0.02826518  0.33197397
                   Y -0.06950903  0.37560824  0.47096749 -0.00191519 -0.13702771
                   Z  0.12692329  0.32245471  0.04825964 -0.02085836  0.50768136
  5   H            X -0.18919883 -0.32356499 -0.06487911  0.02826434  0.33197152
                   Y -0.06950289  0.37557513 -0.47099826 -0.00191436 -0.13702672
                   Z -0.12692226 -0.32245263  0.04827632  0.02085795 -0.50767889
  6   H            X -0.14684862  0.47967250 -0.00002096 -0.09897703 -0.09178599
                   Y -0.00805101  0.05316463 -0.00000174 -0.04095611  0.42299094
                   Z -0.00000441  0.00002492  0.70542427 -0.00000048 -0.00000010
  7   H            X  0.29534862  0.01150189 -0.00000017 -0.14448398  0.02477442
                   Y  0.66679032 -0.03154312  0.00000242 -0.07452785 -0.01788879
                   Z  0.00000145 -0.00000096  0.00889267 -0.00000041 -0.00000026
  8   H            X -0.10720125  0.02071794 -0.00000073  0.04932956 -0.00114482
                   Y -0.35272306  0.03949911 -0.00000198 -0.08577181 -0.00086487
                   Z  0.00000007 -0.00000041 -0.01386870  0.00000005  0.00000009

 TRANS. SAYVETZ    X  0.00003798  0.00000760  0.00000726 -0.00001113 -0.00000568
                   Y  0.00003624  0.00002443  0.00000730 -0.00002324 -0.00000854
                   Z -0.00000023  0.00000007  0.00000333  0.00000013  0.00000004
               TOTAL  0.00005249  0.00002558  0.00001082  0.00002577  0.00001026

   ROT. SAYVETZ    X -0.00000027  0.00000045 -0.00141984  0.00000038  0.00000014
                   Y  0.00000017 -0.00000011  0.00151819 -0.00000012 -0.00000007
                   Z -0.00080345 -0.00003533 -0.00000114  0.00019440  0.00032899
               TOTAL  0.00080345  0.00003534  0.00207867  0.00019440  0.00032899

                           21          22          23          24
       FREQUENCY:      3093.26     3104.11     3133.09     3360.33  
        SYMMETRY:         A'          A''         A'          A'  
    REDUCED MASS:      1.08842     1.10095     1.10120     1.07412
    IR INTENSITY:      0.80416     0.31576     0.64819     0.34158

  1   C            X  0.01129570  0.00000035  0.03701617  0.00024978
                   Y -0.01656605  0.00000006 -0.07727469  0.00047520
                   Z -0.00000016 -0.08772126  0.00000022  0.00000000
  2   C            X -0.06821894  0.00000016  0.01673215 -0.00652241
                   Y  0.04090223 -0.00000012 -0.00940551 -0.00374280
                   Z -0.00000000 -0.00053080 -0.00000001  0.00000000
  3   N            X  0.00213441 -0.00000001 -0.00152581 -0.05904323
                   Y -0.00141850  0.00000001  0.00087256  0.03486072
                   Z  0.00000000  0.00039790  0.00000000 -0.00000000
  4   H            X -0.04390914  0.37489053 -0.14668793  0.00465535
                   Y  0.01454363 -0.15059435  0.04758463  0.00195511
                   Z -0.06895680  0.53561488 -0.23183106  0.00180700
  5   H            X -0.04391062 -0.37489270 -0.14668666  0.00465536
                   Y  0.01454423  0.15059512  0.04758411  0.00195512
                   Z  0.06895886  0.53561813  0.23182859 -0.00180701
  6   H            X -0.04009189 -0.00000006 -0.15952927  0.00105096
                   Y  0.17277755  0.00000043  0.82169177 -0.00998007
                   Z -0.00000004 -0.01920139  0.00000002 -0.00000001
  7   H            X  0.80028827 -0.00000201 -0.18205427  0.02575510
                   Y -0.47509669  0.00000119  0.10627975 -0.00627655
                   Z -0.00000005 -0.00377897 -0.00000013  0.00000001
  8   H            X -0.02425034  0.00000010  0.01618679  0.85893996
                   Y  0.00317042 -0.00000000 -0.00316585 -0.43312548
                   Z  0.00000001 -0.00298001  0.00000006  0.00000000

 TRANS. SAYVETZ    X  0.00000732  0.00000177  0.00000065  0.00000248
                   Y -0.00000337  0.00000176  0.00001182 -0.00001182
                   Z  0.00000002 -0.00000096  0.00000000 -0.00000000
               TOTAL  0.00000806  0.00000267  0.00001184  0.00001208

   ROT. SAYVETZ    X -0.00000001 -0.00023736  0.00000011  0.00000001
                   Y -0.00000015  0.00050733  0.00000001  0.00000004
                   Z -0.00002158 -0.00000036 -0.00012646 -0.00017026
               TOTAL  0.00002158  0.00056011  0.00012646  0.00017026

 REFERENCE ON SAYVETZ CONDITIONS - A. SAYVETZ, J.CHEM.PHYS., 7, 383-389(1939).

 NOTE - THE MODES J,K ARE ORTHONORMALIZED ACCORDING TO
 SUM ON I   M(I) * (X(I,J)*X(I,K) + Y(I,J)*Y(I,K) + Z(I,J)*Z(I,K)) = DELTA(J,K)

  MODE FREQ(CM**-1)  SYMMETRY  RED. MASS  IR INTENS.
     1     185.876    A''      1.107380    0.000045
     2      19.193    A''      1.664395    0.000000
     3      13.981    A'       3.233651    0.102052
     4       4.314    A''      2.691849    0.144498
     5       0.326    A''      5.280037    0.000220
     6       0.027    A'       5.388691    0.000000
     7       0.534    A''      5.045768    0.000996
     8     477.989    A'       2.253694    0.181442
     9     690.761    A''      1.435740    0.155960
    10     941.268    A'       2.551936    0.061782
    11    1060.095    A'       1.446388    0.320762
    12    1072.676    A''      1.534443    0.399704
    13    1154.628    A''      1.110920    1.046824
    14    1289.270    A'       1.304375    1.790354
    15    1418.213    A'       1.209838    0.151020
    16    1451.615    A'       1.222679    0.517025
    17    1507.545    A'       1.063597    0.232116
    18    1517.977    A''      1.044081    0.158905
    19    1738.879    A'       7.987446    1.488033
    20    3044.632    A'       1.037035    0.194115
    21    3093.261    A'       1.088423    0.804160
    22    3104.109    A''      1.100955    0.315755
    23    3133.093    A'       1.101195    0.648194
    24    3360.328    A'       1.074120    0.341583

     -------------------------------
     THERMOCHEMISTRY AT T=  298.15 K
     -------------------------------

 USING IDEAL GAS, RIGID ROTOR, HARMONIC NORMAL MODE APPROXIMATIONS.
 P=  1.01325E+05 PASCAL.
 ALL FREQUENCIES ARE SCALED BY   1.00000
 THE MOMENTS OF INERTIA ARE (IN AMU*BOHR**2)
             36.23054           184.95190           209.90634
 THE ROTATIONAL SYMMETRY NUMBER IS  1.0
 THE ROTATIONAL CONSTANTS ARE (IN GHZ)
     49.76708     9.74896     8.58997
   1 IMAGINARY FREQUENCY VIBRATION(S) IS(ARE) EXCLUDED
     FROM THE FOLLOWING THERMOCHEMICAL ANALYSIS.
      8 -     24 VIBRATIONAL MODES ARE USED IN THERMOCHEMISTRY.
 THE HARMONIC ZERO POINT ENERGY IS (SCALED BY   1.000)
        0.068473 HARTREE/MOLECULE    15028.168719 CM**-1/MOLECULE 
       42.967734 KCAL/MOL              179.776998 KJ/MOL

               Q               LN Q
 ELEC.     1.00000E+00       0.000000
 TRANS.    1.10993E+07      16.222392
 ROT.      1.34252E+04       9.504889
 VIB.      1.18884E+00       0.172977
 TOT.      1.77149E+11      25.900258

              E         H         G         CV        CP        S
           KJ/MOL    KJ/MOL    KJ/MOL   J/MOL-K   J/MOL-K   J/MOL-K
 ELEC.      0.000     0.000     0.000     0.000     0.000     0.000
 TRANS.     3.718     6.197   -40.214    12.472    20.786   155.666
 ROT.       3.718     3.718   -23.562    12.472    12.472    91.499
 VIB.     181.132   181.132   179.348    16.592    16.592     5.984
 TOTAL    188.569   191.048   115.572    41.535    49.849   253.149
 VIB. THERMAL CORRECTION E(T)-E(0) = H(T)-H(0) =      1355.342 J/MOL

              E         H         G         CV        CP        S
         KCAL/MOL  KCAL/MOL  KCAL/MOL CAL/MOL-K CAL/MOL-K CAL/MOL-K
 ELEC.      0.000     0.000     0.000     0.000     0.000     0.000
 TRANS.     0.889     1.481    -9.611     2.981     4.968    37.205
 ROT.       0.889     0.889    -5.631     2.981     2.981    21.869
 VIB.      43.292    43.292    42.865     3.966     3.966     1.430
 TOTAL     45.069    45.662    27.622     9.927    11.914    60.504
 VIB. THERMAL CORRECTION E(T)-E(0) = H(T)-H(0) =       323.935 CAL/MOL
 ......END OF NORMAL COORDINATE ANALYSIS......
 STEP CPU TIME =     0.01 TOTAL CPU TIME =        353.1 (      5.9 MIN)
 TOTAL WALL CLOCK TIME=        357.3 SECONDS, CPU UTILIZATION IS    98.83%
               1071827  WORDS OF DYNAMIC MEMORY USED
 EXECUTION OF GAMESS TERMINATED NORMALLY Tue Oct  4 04:33:54 2022
 DDI: 263640 bytes (0.3 MB / 0 MWords) used by master data server.

 ----------------------------------------
 CPU timing information for all processes
 ========================================
 0: 350.493 + 2.650 = 353.144
 ----------------------------------------
 ddikick.x: exited gracefully.
----- accounting info -----
Files used on the master node chemcompute-node-0.novalocal were:
-rw-r--r--. 1 chemcomp chemcomp      877 Oct  4 04:27 /scratch/120557/460164.F05
-rw-rw-r--. 1 chemcomp chemcomp 65536000 Oct  4 04:33 /scratch/120557/460164.F10
-rw-rw-r--. 1 chemcomp chemcomp  4141680 Oct  4 04:33 /scratch/120557/460164.F22
Tue Oct  4 04:33:58 UTC 2022
0.093u 0.043s 6:00.66 0.0%	0+0k 8+208io 0pf+0w
Finishing Up...
Looking for IR data...
Looking for Raman data...
vibramans not found
Looking for thermodynamics data...
Looking for UV-Vis data...
chemcompute.org
{'UTCtimestamp': '2022-10-04T04:34:00.143826', 'cluster': 'jetstream2', 'clusterJobNumber': '120557', 'status': 'COMPLETE', 'nodeList': 'chemcompute-node-0'}
120557
