chemcompute.org
{'UTCtimestamp': '2022-10-04T03:30:38.751987', 'cluster': 'jetstream2', 'clusterJobNumber': '120553', 'status': 'RUNNING', 'nodeList': 'chemcompute-node-0'}
----- GAMESS execution script 'rungms' -----
This job is running on host chemcompute-node-0.novalocal
under operating system Linux at Tue Oct 4 03:30:42 UTC 2022
SLURM has assigned the following compute nodes to this run:
Available scratch disk space (Kbyte units) at beginning of the job is
Filesystem     1K-blocks     Used Available Use% Mounted on
/dev/sda1       62903276 11509460  51393816  19% /
GAMESS temporary binary files will be written to /scratch/120553
GAMESS supplementary output files will be written to /data/slurm/46/460155
Copying input file 460155.inp to your run's scratch directory...
The generated host list is
chemcompute-node-0.novalocal

 Distributed Data Interface kickoff program.
 Initiating 1 compute processes on 1 nodes to run the following command:
 /data/gamess-2019R1-avx2-ddi/gamess.00.x 460155 

          ******************************************************
          *         GAMESS VERSION = 30 JUN 2019 (R1)          *
          *             FROM IOWA STATE UNIVERSITY             *
          * M.W.SCHMIDT, K.K.BALDRIDGE, J.A.BOATZ, S.T.ELBERT, *
          *   M.S.GORDON, J.H.JENSEN, S.KOSEKI, N.MATSUNAGA,   *
          *          K.A.NGUYEN, S.J.SU, T.L.WINDUS,           *
          *       TOGETHER WITH M.DUPUIS, J.A.MONTGOMERY       *
          *         J.COMPUT.CHEM.  14, 1347-1363(1993)        *
          **************** 64 BIT INTEL VERSION ****************

  SINCE 1993, STUDENTS AND POSTDOCS WORKING AT IOWA STATE UNIVERSITY
  AND ALSO IN THEIR VARIOUS JOBS AFTER LEAVING ISU HAVE MADE IMPORTANT
  CONTRIBUTIONS TO THE CODE:
     IVANA ADAMOVIC, CHRISTINE AIKENS, YURI ALEXEEV, POOJA ARORA,
     ANDREY ASADCHEV, ROB BELL, PRADIPTA BANDYOPADHYAY, JONATHAN BENTZ,
     COLLEEN BERTONI, BRETT BODE, KURT BRORSEN, CALEB CARLIN, GALINA CHABAN,
     WEI CHEN, CHEOL HO CHOI, PAUL DAY, ALBERT DEFUSCO, NUWAN DESILVA,
     TIM DUDLEY, DMITRI FEDOROV, ALEX FINDLATER, GRAHAM FLETCHER, 
     MARK FREITAG, KURT GLAESEMANN, ANASTASIA GUNINA,
     DAN KEMP, GRANT MERRILL, NORIYUKI MINEZAWA, JONATHAN MULLIN,
     TAKESHI NAGATA, SEAN NEDD, HEATHER NETZLOFF, BOSILJKA NJEGIC, RYAN OLSON,
     MIKE PAK, BUU PHAM,
     SPENCER PRUITT, LUKE ROSKOP, JIM SHOEMAKER, LYUDMILA SLIPCHENKO,
     TONY SMITH, SAROM SOK LEANG, JIE SONG, TETSUYA TAKETSUGU, SIMON WEBB,
     PENG XU, SOOHAENG YOO, FEDERICO ZAHARIEV

  ADDITIONAL CODE HAS BEEN PROVIDED BY COLLABORATORS IN OTHER GROUPS:
     IOWA STATE UNIVERSITY:
          JOE IVANIC, AARON WEST, LAIMUTIS BYTAUTAS, KLAUS RUEDENBERG
     UNIVERSITY OF TOKYO: KIMIHIKO HIRAO, TAKAHITO NAKAJIMA,
          TAKAO TSUNEDA, MUNEAKI KAMIYA, SUSUMU YANAGISAWA,
          KIYOSHI YAGI, MAHITO CHIBA, SEIKEN TOKURA, NAOAKI KAWAKAMI
     UNIVERSITY OF AARHUS: FRANK JENSEN
     UNIVERSITY OF IOWA: VISVALDAS KAIRYS, HUI LI
     NATIONAL INST. OF STANDARDS AND TECHNOLOGY: WALT STEVENS, DAVID GARMER
     UNIVERSITY OF PISA: BENEDETTA MENNUCCI, JACOPO TOMASI
     UNIVERSITY OF MEMPHIS: HENRY KURTZ, PRAKASHAN KORAMBATH
     UNIVERSITY OF ALBERTA: TOBY ZENG, MARIUSZ KLOBUKOWSKI
     UNIVERSITY OF NEW ENGLAND: MARK SPACKMAN
     MIE UNIVERSITY: HIROAKI UMEDA
     NAT. INST. OF ADVANCED INDUSTRIAL SCIENCE AND TECHNOLOGY: KAZUO KITAURA
     MICHIGAN STATE UNIVERSITY:
          KAROL KOWALSKI, MARTA WLOCH, JEFFREY GOUR, JESSE LUTZ,
          WEI LI, JUN SHEN, J. EMILIANO DEUSTUA, PIOTR PIECUCH
     UNIVERSITY OF MINNESOTA:
          YINAN SHU
     UNIVERSITY OF SILESIA: MONIKA MUSIAL, STANISLAW KUCHARSKI
     FACULTES UNIVERSITAIRES NOTRE-DAME DE LA PAIX:
          OLIVIER QUINET, BENOIT CHAMPAGNE
     UNIVERSITY OF CALIFORNIA - SANTA BARBARA: BERNARD KIRTMAN
     INSTITUTE FOR MOLECULAR SCIENCE:
          KAZUYA ISHIMURA, MICHIO KATOUDA, AND SHIGERU NAGASE
     UNIVERSITY OF NOTRE DAME: ANNA POMOGAEVA, DAN CHIPMAN
     KYUSHU UNIVERSITY:
          HARUYUKI NAKANO,
          FENG LONG GU, JACEK KORCHOWIEC, MARCIN MAKOWSKI, AND YURIKO AOKI,
          HIROTOSHI MORI AND EISAKU MIYOSHI
     PENNSYLVANIA STATE UNIVERSITY:
          TZVETELIN IORDANOV, CHET SWALINA, JONATHAN SKONE,
          SHARON HAMMES-SCHIFFER
     WASEDA UNIVERSITY:
          MASATO KOBAYASHI, TOMOKO AKAMA, TSUGUKI TOUMA,
          TAKESHI YOSHIKAWA, YASUHIRO IKABATA, JUNJI SEINO,
          YUYA NAKAJIMA, HIROMI NAKAI
     NANJING UNIVERSITY: SHUHUA LI
     UNIVERSITY OF NEBRASKA:
          PEIFENG SU, DEJUN SI, NANDUN THELLAMUREGE, YALI WANG, HUI LI
     UNIVERSITY OF ZURICH: ROBERTO PEVERATI, KIM BALDRIDGE
     N. COPERNICUS UNIVERSITY AND JACKSON STATE UNIVERSITY:
          MARIA BARYSZ
     UNIVERSITY OF COPENHAGEN: Jimmy Kromann, CASPER STEINMANN
     TOKYO INSTITUTE OF TECHNOLOGY: HIROYA NAKATA
     NAGOYA UNIVERSITY: YOSHIO NISHIMOTO, STEPHAN IRLE
     MOSCOW STATE UNIVERSITY: VLADIMIR MIRONOV
     A.N.NESMEYANOV INSTITUTE OF ORGANOELEMENT COMPOUNDS OF RUSSIAN ACADEMY OF SCIENCES:
          IGOR S. GERASIMOV

 EXECUTION OF GAMESS BEGUN Tue Oct  4 03:30:42 2022

            ECHO OF THE FIRST FEW INPUT CARDS -
 INPUT CARD>!                                                                               
 INPUT CARD>!   GAMESS Calculation input file                                               
 INPUT CARD>!                                                                               
 INPUT CARD>!                                                                               
 INPUT CARD> $CONTRL SCFTYP=RHF MAXIT=200 RUNTYP=OPTIMIZE                                   
 INPUT CARD>         COORD=UNIQUE MULT=1                                                    
 INPUT CARD>         ICHARG=0                                                               
 INPUT CARD>         DFTTYP=B3LYP                                                           
 INPUT CARD>         MOLPLT=.FALSE. PLTORB=.FALSE.  $END                                    
 INPUT CARD> $SYSTEM TIMLIM=2879 MWORDS=250  $END                                           
 INPUT CARD>                                                                                
 INPUT CARD> $FORCE METHOD=SEMINUM NVIB=2 $END                                              
 INPUT CARD> $STATPT OPTTOL=0.0005 NSTEP=999 $END                                           
 INPUT CARD> $STATPT IHREP=0 HSSEND=.TRUE.  $END                                            
 INPUT CARD>                                                                                
 INPUT CARD> $DFT    METHOD=GRID  NLEB=590  $END                                            
 INPUT CARD>                                                                                
 INPUT CARD> $BASIS  GBASIS=N31 NGAUSS=6                                                    
 INPUT CARD>         NDFUNC=1   NPFUNC=0  $END                                              
 INPUT CARD>                                                                                
 INPUT CARD> $SCF    DIRSCF=.T. $END                                                        
 INPUT CARD> $GUESS  GUESS=HUCKEL  $END                                                     
 INPUT CARD>                                                                                
 INPUT CARD> $DATA                                                                          
 INPUT CARD>                                                                                
 INPUT CARD>  C1                                                                            
 INPUT CARD>C     6.0    -1.80623    -0.32324     0.19737                                   
 INPUT CARD>C     6.0    -0.67587     0.36162    -0.01292                                   
 INPUT CARD>C     6.0     0.63252    -0.32874    -0.02255                                   
 INPUT CARD>O     8.0     1.67957     0.29312    -0.15271                                   
 INPUT CARD>H     1.0    -1.81820    -1.39742     0.36876                                   
 INPUT CARD>H     1.0    -2.76434     0.18916     0.20780                                   
 INPUT CARD>H     1.0    -0.66229     1.43596    -0.17757                                   
 INPUT CARD>H     1.0     0.61144    -1.42257     0.09695                                   
 INPUT CARD> $END                                                                           
 INPUT CARD>                                                                                
 INPUT CARD>                                                                                
 INPUT CARD>! Customizations after this line are persisted when using Do More Calculations  
  250000000 WORDS OF MEMORY AVAILABLE

     BASIS OPTIONS
     -------------
     GBASIS=N31          IGAUSS=       6      POLAR=POPN31  
     NDFUNC=       1     NFFUNC=       0     DIFFSP=       F
     NPFUNC=       0      DIFFS=       F     BASNAM=        


     RUN TITLE
     ---------
                                                                                 

 THE POINT GROUP OF THE MOLECULE IS C1      
 THE ORDER OF THE PRINCIPAL AXIS IS     0

 ATOM      ATOMIC                      COORDINATES (BOHR)
           CHARGE         X                   Y                   Z
 C           6.0    -3.4132797708       -0.6108350283        0.3729752182
 C           6.0    -1.2772091033        0.6833627117       -0.0244152598
 C           6.0     1.1952894818       -0.6212285212       -0.0426133210
 O           8.0     3.1739270772        0.5539164815       -0.2885800556
 H           1.0    -3.4358997909       -2.6407408898        0.6968553552
 H           1.0    -5.2238451369        0.3574605678        0.3926850602
 H           1.0    -1.2515466244        2.7135709293       -0.3355586436
 H           1.0     1.1554540579       -2.6882674984        0.1832089345

          INTERNUCLEAR DISTANCES (ANGS.)
          ------------------------------

                1 C          2 C          3 C          4 O          5 H     

   1 C       0.0000000    1.3382708 *  2.4486520 *  3.5571417    1.0878329 *
   2 C       1.3382708 *  0.0000000    1.4793830 *  2.3605785 *  2.1318582 *
   3 C       2.4486520 *  1.4793830 *  0.0000000    1.2247307 *  2.7020786 *
   4 O       3.5571417    2.3605785 *  1.2247307 *  0.0000000    3.9197259  
   5 H       1.0878329 *  2.1318582 *  2.7020786 *  3.9197259    0.0000000  
   6 H       1.0865714 *  2.1071703 *  3.4438263    4.4597210    1.8542721 *
   7 H       2.1316574 *  1.0869685 *  2.1942494 *  2.6059566 *  3.1084798  
   8 H       2.6577695 *  2.2028555 *  1.1005402 *  2.0363752 *  2.4449261 *

                6 H          7 H          8 H     

   1 C       1.0865714 *  2.1316574 *  2.6577695 *
   2 C       2.1071703 *  1.0869685 *  2.2028555 *
   3 C       3.4438263    2.1942494 *  1.1005402 *
   4 O       4.4597210    2.6059566 *  2.0363752 *
   5 H       1.8542721 *  3.1084798    2.4449261 *
   6 H       0.0000000    2.4741937 *  3.7424393  
   7 H       2.4741937 *  0.0000000    3.1414874  
   8 H       3.7424393    3.1414874    0.0000000  

  * ... LESS THAN  3.000


     ATOMIC BASIS SET
     ----------------
 THE CONTRACTED PRIMITIVE FUNCTIONS HAVE BEEN UNNORMALIZED
 THE CONTRACTED BASIS FUNCTIONS ARE NOW NORMALIZED TO UNITY

  SHELL TYPE  PRIMITIVE        EXPONENT          CONTRACTION COEFFICIENT(S)

 C         

      1   S       1          3047.5248800    0.001834737132
      1   S       2           457.3695180    0.014037322813
      1   S       3           103.9486850    0.068842622264
      1   S       4            29.2101553    0.232184443216
      1   S       5             9.2866630    0.467941348435
      1   S       6             3.1639270    0.362311985337

      2   L       7             7.8682723   -0.119332419775    0.068999066591
      2   L       8             1.8812885   -0.160854151696    0.316423960957
      2   L       9             0.5442493    1.143456437840    0.744308290898

      3   L      10             0.1687145    1.000000000000    1.000000000000

      4   D      11             0.8000000    1.000000000000

 C         

      5   S      12          3047.5248800    0.001834737132
      5   S      13           457.3695180    0.014037322813
      5   S      14           103.9486850    0.068842622264
      5   S      15            29.2101553    0.232184443216
      5   S      16             9.2866630    0.467941348435
      5   S      17             3.1639270    0.362311985337

      6   L      18             7.8682723   -0.119332419775    0.068999066591
      6   L      19             1.8812885   -0.160854151696    0.316423960957
      6   L      20             0.5442493    1.143456437840    0.744308290898

      7   L      21             0.1687145    1.000000000000    1.000000000000

      8   D      22             0.8000000    1.000000000000

 C         

      9   S      23          3047.5248800    0.001834737132
      9   S      24           457.3695180    0.014037322813
      9   S      25           103.9486850    0.068842622264
      9   S      26            29.2101553    0.232184443216
      9   S      27             9.2866630    0.467941348435
      9   S      28             3.1639270    0.362311985337

     10   L      29             7.8682723   -0.119332419775    0.068999066591
     10   L      30             1.8812885   -0.160854151696    0.316423960957
     10   L      31             0.5442493    1.143456437840    0.744308290898

     11   L      32             0.1687145    1.000000000000    1.000000000000

     12   D      33             0.8000000    1.000000000000

 O         

     13   S      34          5484.6716600    0.001831074430
     13   S      35           825.2349460    0.013950172200
     13   S      36           188.0469580    0.068445078098
     13   S      37            52.9645000    0.232714335992
     13   S      38            16.8975704    0.470192897984
     13   S      39             5.7996353    0.358520852987

     14   L      40            15.5396162   -0.110777549525    0.070874268231
     14   L      41             3.5999336   -0.148026262701    0.339752839147
     14   L      42             1.0137618    1.130767015354    0.727158577316

     15   L      43             0.2700058    1.000000000000    1.000000000000

     16   D      44             0.8000000    1.000000000000

 H         

     17   S      45            18.7311370    0.033494604338
     17   S      46             2.8253944    0.234726953484
     17   S      47             0.6401217    0.813757326146

     18   S      48             0.1612778    1.000000000000

 H         

     19   S      49            18.7311370    0.033494604338
     19   S      50             2.8253944    0.234726953484
     19   S      51             0.6401217    0.813757326146

     20   S      52             0.1612778    1.000000000000

 H         

     21   S      53            18.7311370    0.033494604338
     21   S      54             2.8253944    0.234726953484
     21   S      55             0.6401217    0.813757326146

     22   S      56             0.1612778    1.000000000000

 H         

     23   S      57            18.7311370    0.033494604338
     23   S      58             2.8253944    0.234726953484
     23   S      59             0.6401217    0.813757326146

     24   S      60             0.1612778    1.000000000000

 TOTAL NUMBER OF BASIS SET SHELLS             =   24
 NUMBER OF CARTESIAN GAUSSIAN BASIS FUNCTIONS =   68
 NUMBER OF ELECTRONS                          =   30
 CHARGE OF MOLECULE                           =    0
 SPIN MULTIPLICITY                            =    1
 NUMBER OF OCCUPIED ORBITALS (ALPHA)          =   15
 NUMBER OF OCCUPIED ORBITALS (BETA )          =   15
 TOTAL NUMBER OF ATOMS                        =    8
 THE NUCLEAR REPULSION ENERGY IS      102.7738268365

 SELECTED MURRAY-HANDY-LAMING RADIAL GRID

 LEGACY BECKE'S FUZZY CELL METHOD

 SELECTED ORIGINAL BECKE'S PARTITION FUNCTION

     LEBEDEV GRID-BASED DFT OPTIONS
     ------------------------------
     DFTTYP=B3LYP   
     NRAD  =      96     NLEB  =     590
     NRAD0 =      24     NLEB0 =     110
     SWOFF =    5.00E-03 (PURE SCF -> DFT)
     SWITCH=    3.00E-04 (COARSE -> TIGHT GRID)
     THRESH=    0.00E+00 GTHRE=    1.00E+00

 GRIMME'S EMPIRICAL DISPERSION CORRECTION= F

     $CONTRL OPTIONS
     ---------------
 SCFTYP=RHF          RUNTYP=OPTIMIZE     EXETYP=RUN     
 MPLEVL=       0     CITYP =NONE         CCTYP =NONE         VBTYP =NONE    
 DFTTYP=B3LYP        TDDFT =NONE    
 MULT  =       1     ICHARG=       0     NZVAR =       0     COORD =UNIQUE  
 PP    =NONE         RELWFN=NONE         LOCAL =NONE         NUMGRD=       F
 ISPHER=      -1     NOSYM =       0     MAXIT =     200     UNITS =ANGS    
 PLTORB=       F     MOLPLT=       F     AIMPAC=       F     FRIEND=        
 NPRINT=       7     IREST =       0     GEOM  =INPUT   
 NORMF =       0     NORMP =       0     ITOL  =      20     ICUT  =       9
 INTTYP=BEST         GRDTYP=BEST         QMTTOL= 1.0E-06

     $SYSTEM OPTIONS
     ---------------
  REPLICATED MEMORY=   250000000 WORDS (ON EVERY NODE).
 DISTRIBUTED MEMDDI=           0 MILLION WORDS IN AGGREGATE,
 MEMDDI DISTRIBUTED OVER   1 PROCESSORS IS           0 WORDS/PROCESSOR.
 TOTAL MEMORY REQUESTED ON EACH PROCESSOR=   250000000 WORDS.
 TIMLIM=        2879.00 MINUTES, OR       2.0 DAYS.
 PARALL= F  BALTYP=  DLB     KDIAG=    0  COREFL= F
 MXSEQ2=     300 MXSEQ3=     150  mem10=         0

          ----------------
          PROPERTIES INPUT
          ----------------

     MOMENTS            FIELD           POTENTIAL          DENSITY
 IEMOM =       1   IEFLD =       0   IEPOT =       0   IEDEN =       0
 WHERE =COMASS     WHERE =NUCLEI     WHERE =NUCLEI     WHERE =NUCLEI  
 OUTPUT=BOTH       OUTPUT=BOTH       OUTPUT=BOTH       OUTPUT=BOTH    
 IEMINT=       0   IEFINT=       0                     IEDINT=       0
                                                       MORB  =       0
          EXTRAPOLATION IN EFFECT
          DIIS IN EFFECT
 ORBITAL PRINTING OPTION: NPREO=     1    68     2     1

     -------------------------------
     INTEGRAL TRANSFORMATION OPTIONS
     -------------------------------
     NWORD  =            0
     CUTOFF = 1.0E-09     MPTRAN =       0
     DIRTRF =       T     AOINTS =DUP     

          ----------------------
          INTEGRAL INPUT OPTIONS
          ----------------------
 NOPK  =       1 NORDER=       0 SCHWRZ=       T

     ------------------------------------------
     THE POINT GROUP IS C1 , NAXIS= 0, ORDER= 1
     ------------------------------------------

     DIMENSIONS OF THE SYMMETRY SUBSPACES ARE
 A   =   68

 ..... DONE SETTING UP THE RUN .....
 STEP CPU TIME =     0.01 TOTAL CPU TIME =          0.0 (      0.0 MIN)
 TOTAL WALL CLOCK TIME=          0.0 SECONDS, CPU UTILIZATION IS    33.33%


          -----------------------------
          STATIONARY POINT LOCATION RUN
          -----------------------------

 OBTAINING INITIAL HESSIAN, HESS=GUESS   
 CARTESIAN COORDINATE OPTIMIZATION USING BADGER'S RULE FORCE CONSTANT GUESS

          PARAMETERS CONTROLLING GEOMETRY SEARCH ARE
          METHOD =QA                  UPHESS =BFGS    
          NNEG   =         0          NFRZ   =         0
          NSTEP  =       999          IFOLOW =         1
          HESS   =GUESS               RESTAR =         F
          IHREP  =         0          HSSEND =         T
          NPRT   =         0          NPUN   =         0
          OPTTOL = 5.000E-04          RMIN   = 1.500E-03
          RMAX   = 1.000E-01          RLIM   = 7.000E-02
          DXMAX  = 3.000E-01          PURIFY =         F
          MOVIE  =         F          TRUPD  =         T
          TRMAX  = 5.000E-01          TRMIN  = 5.000E-02
          ITBMAT =         5          STPT   =         F
          STSTEP = 1.000E-02          PROJCT=          T

 BEGINNING GEOMETRY SEARCH POINT NSERCH=   0 ...

 COORDINATES OF ALL ATOMS ARE (ANGS)
   ATOM   CHARGE       X              Y              Z
 ------------------------------------------------------------
 C           6.0  -1.8062300000  -0.3232400000   0.1973700000
 C           6.0  -0.6758700000   0.3616200000  -0.0129200000
 C           6.0   0.6325200000  -0.3287400000  -0.0225500000
 O           8.0   1.6795700000   0.2931200000  -0.1527100000
 H           1.0  -1.8182000000  -1.3974200000   0.3687600000
 H           1.0  -2.7643400000   0.1891600000   0.2078000000
 H           1.0  -0.6622900000   1.4359600000  -0.1775700000
 H           1.0   0.6114400000  -1.4225700000   0.0969500000

          ********************
          1 ELECTRON INTEGRALS
          ********************
 ...... END OF ONE-ELECTRON INTEGRALS ......
 STEP CPU TIME =     0.00 TOTAL CPU TIME =          0.0 (      0.0 MIN)
 TOTAL WALL CLOCK TIME=          0.0 SECONDS, CPU UTILIZATION IS    25.00%

          -------------
          GUESS OPTIONS
          -------------
          GUESS =HUCKEL            NORB  =       0          NORDER=       0
          MIX   =       F          PRTMO =       F          PUNMO =       F
          TOLZ  = 1.0E-08          TOLE  = 1.0E-05
          SYMDEN=       F          PURIFY=       F

 INITIAL GUESS ORBITALS GENERATED BY HUCKEL   ROUTINE.
 HUCKEL GUESS REQUIRES     42032 WORDS.

 SYMMETRIES FOR INITIAL GUESS ORBITALS FOLLOW.   BOTH SET(S).
    15 ORBITALS ARE OCCUPIED (    4 CORE ORBITALS).
     5=A        6=A        7=A        8=A        9=A       10=A       11=A   
    12=A       13=A       14=A       15=A       16=A       17=A       18=A   
    19=A       20=A       21=A       22=A       23=A       24=A       25=A   
 ...... END OF INITIAL ORBITAL SELECTION ......
 STEP CPU TIME =     0.02 TOTAL CPU TIME =          0.0 (      0.0 MIN)
 TOTAL WALL CLOCK TIME=          0.1 SECONDS, CPU UTILIZATION IS    50.00%

                    ----------------------
                    AO INTEGRAL TECHNOLOGY
                    ----------------------
     S,P,L SHELL ROTATED AXIS INTEGRALS, REPROGRAMMED BY
        KAZUYA ISHIMURA (IMS) AND JOSE SIERRA (SYNSTAR).
     S,P,D,L SHELL ROTATED AXIS INTEGRALS PROGRAMMED BY
        KAZUYA ISHIMURA (INSTITUTE FOR MOLECULAR SCIENCE).
     S,P,D,F,G SHELL TO TOTAL QUARTET ANGULAR MOMENTUM SUM 5,
        ERIC PROGRAM BY GRAHAM FLETCHER (ELORET AND NASA ADVANCED
        SUPERCOMPUTING DIVISION, AMES RESEARCH CENTER).
     S,P,D,F,G,L SHELL GENERAL RYS QUADRATURE PROGRAMMED BY
        MICHEL DUPUIS (PACIFIC NORTHWEST NATIONAL LABORATORY).

          --------------------
          2 ELECTRON INTEGRALS
          --------------------

 DIRECT SCF METHOD SKIPS INTEGRAL STORAGE ON DISK.
 DIRECT TRANSFORMATION SKIPS AO INTEGRAL STORAGE ON DISK.
  ...... END OF TWO-ELECTRON INTEGRALS .....
 STEP CPU TIME =     0.00 TOTAL CPU TIME =          0.0 (      0.0 MIN)
 TOTAL WALL CLOCK TIME=          0.1 SECONDS, CPU UTILIZATION IS    42.86%

          --------------------------
             R-B3LYP SCF CALCULATION
          --------------------------

     NUCLEAR ENERGY =       102.7738268365
     MAXIT =  200     NPUNCH=    2
     EXTRAP=T  DAMP=F  SHIFT=F  RSTRCT=F  DIIS=T  DEM=F  SOSCF=F
         DENSITY MATRIX CONVERGENCE THRESHOLD=  2.00E-05
     COARSE -> FINE DFT GRID SWITCH THRESHOLD=  3.00E-04 (SWITCH IN $DFT)
                   HF -> DFT SWITCH THRESHOLD=  5.00E-03 (SWOFF IN $DFT)
     MEMORY REQUIRED FOR RHF ITERS=    620217 WORDS.

 DIRECT SCF CALCULATION, SCHWRZ=T   FDIFF=T,  DIRTHR=  0.00E+00 NITDIR=10
 SCHWARZ INEQUALITY OVERHEAD:      2343 INTEGRALS, T=        0.00

 DFT CODE IS SWITCHING FROM THE FINE GRID NRAD= 96,  NLEB=  590
                      TO THE COARSE GRID NRAD0= 24, NLEB0=  110

     EXCHANGE FUNCTIONAL   =B88&HFX   
     CORRELATION FUNCTIONAL=LYP88&VWN5
     DFT THRESHOLD         =.883E-08
     GRID CHANGE THRESHOLD =.300E-03
 FOR AN EULER-MACLAURIN QUADRATURE USING  96 RADIAL POINTS:
 SMALLEST GAUSSIAN PRIMITIVE EXPONENT=        0.1612777588 OF TYPE -S-
 ON ATOM NUMBER   5 HAS RADIAL NORMALIZATION=  1.000000
  LARGEST GAUSSIAN PRIMITIVE EXPONENT=     5484.6716600000 OF TYPE -S-
 ON ATOM NUMBER   4 HAS RADIAL NORMALIZATION=  1.000000
 DFT IS SWITCHED OFF, PERFORMING PURE SCF UNTIL SWOFF THRESHOLD IS REACHED.

                                                                                   NONZERO     BLOCKS
 ITER EX DEM     TOTAL ENERGY        E CHANGE  DENSITY CHANGE    DIIS ERROR      INTEGRALS    SKIPPED
   1  0  0     -190.2059609338  -190.2059609338   0.303797975   0.698695297        2541143       4224
          * * *   INITIATING DIIS PROCEDURE   * * *
   2  1  0     -190.6947127868    -0.4887518531   0.159226508   0.115120429        2540892       4508
   3  2  0     -190.7282610803    -0.0335482934   0.081074785   0.102014419        2538135       4896
   4  3  0     -190.7583627714    -0.0301016912   0.014709255   0.008369162        2534002       5281
   5  4  0     -190.7590479876    -0.0006852162   0.006508404   0.003334505        2521617       5866
   6  5  0     -190.7591334018    -0.0000854142   0.002919417   0.001159441        2504608       6584
 CONVERGED TO SWOFF, SO DFT CALCULATION IS NOW SWITCHED ON.
          * * *   INITIATING DIIS PROCEDURE   * * *
   7  6  0     -191.7803253373    -1.0211919354   0.116510721   0.101357063        2541285       4233
   8  7  0     -191.7978245016    -0.0174991643   0.073316407   0.034046434        2538808       4804
   9  8  0     -191.7924732928     0.0053512088   0.058328847   0.051005849        2534226       5193
  10  9  0     -191.8021456816    -0.0096723889   0.009782706   0.011514661        2529572       5462
  11 10  0     -191.8024721768    -0.0003264952   0.001545183   0.000966440        2512116       6165
  12 11  0     -191.8024740453    -0.0000018685   0.000832478   0.000595280        2467495       7545
  13 12  0     -191.8024763594    -0.0000023141   0.000082292   0.000061561        2422722       8802
 DFT CODE IS SWITCHING BACK TO THE FINE GRID
          * * *   INITIATING DIIS PROCEDURE   * * *
  14 13  0     -191.8004389930     0.0020373665   0.003330116   0.001628853        2541398       4197
  15 14  0     -191.8004472269    -0.0000082339   0.000453173   0.000178562        2491226       7056
  16 15  0     -191.8004471876     0.0000000393   0.000306232   0.000191593        2424038       9065
  17 16  0     -191.8004473971    -0.0000002094   0.000132783   0.000100533        2385590       9951
  18 17  0     -191.8004474232    -0.0000000262   0.000038366   0.000033244        2346192      10807
  19 18  0     -191.8004474273    -0.0000000040   0.000013062   0.000006208        2295997      11907
  20 19  0     -191.8004474274    -0.0000000002   0.000004780   0.000003612        2201477      14199

          -----------------
          DENSITY CONVERGED
          -----------------
     TIME TO FORM FOCK OPERATORS=       9.5 SECONDS (       0.5 SEC/ITER)
     FOCK TIME ON FIRST ITERATION=       0.1, LAST ITERATION=       1.1
     TIME TO SOLVE SCF EQUATIONS=       0.1 SECONDS (       0.0 SEC/ITER)

 FINAL R-B3LYP ENERGY IS     -191.8004474274 AFTER  20 ITERATIONS
 DFT EXCHANGE + CORRELATION ENERGY =       -21.1472774055
 TOTAL ELECTRON NUMBER             =        30.0000032820

          ------------
          EIGENVECTORS
          ------------

                      1          2          3          4          5
                  -19.1431   -10.2737   -10.2162   -10.2067    -1.0333
                     A          A          A          A          A   
    1  C  1  S    0.000025  -0.000055   0.991711  -0.044619  -0.004035
    2  C  1  S    0.000119  -0.000245   0.049211  -0.002758   0.010102
    3  C  1  X    0.000085  -0.000131   0.000059  -0.000349   0.007078
    4  C  1  Y   -0.000019   0.000070  -0.000008  -0.000195   0.000750
    5  C  1  Z   -0.000009  -0.000001   0.000003   0.000063  -0.000742
    6  C  1  S   -0.000165   0.000031  -0.012716   0.005908   0.010395
    7  C  1  X   -0.000563   0.000704  -0.000802   0.002220  -0.007516
    8  C  1  Y    0.000270  -0.000286  -0.000435   0.000437   0.010449
    9  C  1  Z    0.000013  -0.000006   0.000131  -0.000270  -0.001046
   10  C  1 XX   -0.000006   0.000067  -0.009295   0.000119   0.000384
   11  C  1 YY    0.000034   0.000026  -0.009410   0.000142  -0.000092
   12  C  1 ZZ    0.000068  -0.000127  -0.009769   0.000304   0.000141
   13  C  1 XY    0.000008   0.000048   0.000124  -0.000104   0.000078
   14  C  1 XZ    0.000007  -0.000027  -0.000072   0.000037  -0.000048
   15  C  1 YZ    0.000004  -0.000033  -0.000080   0.000040   0.000024
   16  C  2  S   -0.000012   0.002087   0.044133   0.991768  -0.020959
   17  C  2  S   -0.000002  -0.000075   0.001689   0.049645   0.038161
   18  C  2  X    0.000006  -0.000233   0.000340  -0.000069   0.028409
   19  C  2  Y   -0.000044   0.000226   0.000219  -0.000262  -0.007911
   20  C  2  Z    0.000007  -0.000013  -0.000065   0.000052  -0.000891
   21  C  2  S    0.000718   0.003059   0.003849  -0.015716   0.024983
   22  C  2  X    0.000405   0.001064  -0.001542  -0.000209   0.020467
   23  C  2  Y    0.000360  -0.001231  -0.000735   0.002183   0.005629
   24  C  2  Z   -0.000069   0.000063   0.000265  -0.000332  -0.002035
   25  C  2 XX   -0.000082  -0.000497  -0.000707  -0.009185   0.006999
   26  C  2 YY   -0.000004  -0.000265  -0.000666  -0.009320  -0.000201
   27  C  2 ZZ   -0.000020  -0.000172  -0.000565  -0.009628  -0.002421
   28  C  2 XY   -0.000028   0.000141  -0.000023   0.000159  -0.003058
   29  C  2 XZ    0.000008   0.000009   0.000020  -0.000073  -0.000389
   30  C  2 YZ   -0.000004   0.000005   0.000020  -0.000071  -0.000212
   31  C  3  S    0.000013   0.992818  -0.000115  -0.002358  -0.118038
   32  C  3  S    0.000545   0.048716  -0.000187  -0.000382   0.230101
   33  C  3  X   -0.000010   0.000630   0.000020   0.000226   0.149531
   34  C  3  Y    0.000048   0.000441   0.000005  -0.000147   0.095236
   35  C  3  Z   -0.000007  -0.000084  -0.000004   0.000004  -0.019298
   36  C  3  S   -0.003329  -0.008836   0.000012   0.005149   0.071127
   37  C  3  X   -0.002264   0.002989  -0.000483  -0.001806  -0.017872
   38  C  3  Y   -0.002073   0.001323  -0.000418   0.001048  -0.031871
   39  C  3  Z    0.000371  -0.000342   0.000081   0.000010   0.004679
   40  C  3 XX   -0.000630  -0.008686   0.000040  -0.000378   0.011245
   41  C  3 YY   -0.000248  -0.009189  -0.000037  -0.000258  -0.005862
   42  C  3 ZZ   -0.000022  -0.009700  -0.000060  -0.000138  -0.018714
   43  C  3 XY   -0.000420   0.000488  -0.000028   0.000200   0.021006
   44  C  3 XZ    0.000088  -0.000125  -0.000008  -0.000004  -0.004410
   45  C  3 YZ    0.000054  -0.000095  -0.000003   0.000011  -0.002934
   46  O  4  S    0.992767  -0.000130  -0.000037   0.000026  -0.194543
   47  O  4  S    0.025691   0.000383  -0.000166   0.000072   0.425104
   48  O  4  X   -0.000971   0.000051   0.000015  -0.000030  -0.138279
   49  O  4  Y   -0.000592   0.000012  -0.000001   0.000003  -0.080482
   50  O  4  Z    0.000123  -0.000006   0.000002  -0.000003   0.016997
   51  O  4  S    0.013684  -0.002741   0.000942  -0.000762   0.400374
   52  O  4  X   -0.001424   0.001598  -0.000272   0.000359  -0.050536
   53  O  4  Y   -0.000718   0.001070  -0.000042  -0.000068  -0.025555
   54  O  4  Z    0.000158  -0.000203   0.000013  -0.000005   0.005686
   55  O  4 XX   -0.007689  -0.000182  -0.000062   0.000097   0.005174
   56  O  4 YY   -0.007974   0.000087  -0.000125   0.000129  -0.005553
   57  O  4 ZZ   -0.008100   0.000395  -0.000116   0.000019  -0.005715
   58  O  4 XY    0.000252  -0.000313  -0.000006  -0.000013   0.010538
   59  O  4 XZ   -0.000055   0.000073  -0.000002  -0.000006  -0.001889
   60  O  4 YZ   -0.000031   0.000057   0.000001  -0.000011  -0.000659
   61  H  5  S    0.000095  -0.000125  -0.000336  -0.000126   0.003054
   62  H  5  S    0.000040  -0.000068   0.002165  -0.000505   0.003855
   63  H  6  S   -0.000036   0.000045  -0.000335  -0.000016   0.000047
   64  H  6  S   -0.000312   0.000525   0.002124   0.000082  -0.007293
   65  H  7  S   -0.000026  -0.000041  -0.000101  -0.000356   0.007855
   66  H  7  S   -0.000309   0.000317  -0.000000   0.001664  -0.001549
   67  H  8  S   -0.000043  -0.000259  -0.000063  -0.000111   0.028516
   68  H  8  S   -0.000541   0.002450  -0.000204  -0.000108  -0.016722

                      6          7          8          9         10
                   -0.7984    -0.6445    -0.5739    -0.4768    -0.4691
                     A          A          A          A          A   
    1  C  1  S   -0.145315  -0.131306   0.048610   0.008164   0.006332
    2  C  1  S    0.280663   0.262785  -0.097684  -0.015272  -0.015610
    3  C  1  X    0.089661  -0.083387   0.063626  -0.019290   0.359683
    4  C  1  Y    0.045844  -0.003000   0.151749   0.299543   0.018223
    5  C  1  Z   -0.015158   0.008683  -0.029213  -0.046625  -0.036609
    6  C  1  S    0.219513   0.245274  -0.106048  -0.051823  -0.004055
    7  C  1  X    0.014798  -0.037253   0.014255  -0.015860   0.147243
    8  C  1  Y   -0.002987  -0.004748   0.052692   0.105566   0.002976
    9  C  1  Z   -0.000856   0.004329  -0.009297  -0.015707  -0.014502
   10  C  1 XX    0.006506  -0.002326   0.001021   0.004711  -0.002857
   11  C  1 YY    0.001433   0.006202  -0.004130  -0.009256  -0.006100
   12  C  1 ZZ   -0.014588  -0.011801   0.004543   0.000790   0.000326
   13  C  1 XY    0.003868  -0.005992   0.008628   0.001047   0.013895
   14  C  1 XZ   -0.002916  -0.000130  -0.000885  -0.000691  -0.001789
   15  C  1 YZ   -0.003377  -0.002772   0.000851   0.001819  -0.000174
   16  C  2  S   -0.159919   0.057323  -0.096577  -0.008816  -0.031404
   17  C  2  S    0.313176  -0.117192   0.196045   0.015943   0.068413
   18  C  2  X   -0.055907  -0.211779  -0.023856  -0.228273  -0.186631
   19  C  2  Y   -0.068213   0.006013   0.183829   0.128492  -0.215088
   20  C  2  Z    0.015767   0.019190  -0.024467  -0.002554   0.049792
   21  C  2  S    0.203005  -0.103049   0.212608   0.012556   0.022443
   22  C  2  X   -0.005803  -0.048341   0.005127  -0.099454  -0.030440
   23  C  2  Y    0.014601  -0.007111   0.055886   0.042189  -0.053647
   24  C  2  Z   -0.001691   0.005781  -0.008637   0.000491   0.011152
   25  C  2 XX    0.001609   0.002178  -0.006319  -0.001401  -0.007577
   26  C  2 YY    0.001883  -0.003430   0.004475   0.002349  -0.002940
   27  C  2 ZZ   -0.014879   0.005034  -0.007623  -0.000747  -0.001406
   28  C  2 XY    0.003632   0.014097   0.003343   0.000258   0.007550
   29  C  2 XZ   -0.002432  -0.001816  -0.000572  -0.000244  -0.000513
   30  C  2 YZ   -0.003455   0.000162  -0.002550  -0.000357  -0.000445
   31  C  3  S   -0.051186   0.116346   0.085275  -0.013203   0.051504
   32  C  3  S    0.101184  -0.246828  -0.180852   0.025952  -0.124002
   33  C  3  X   -0.133555   0.169677  -0.018781   0.179581  -0.072388
   34  C  3  Y   -0.003045   0.034093   0.228361  -0.267502  -0.133152
   35  C  3  Z    0.009315  -0.013255  -0.025082   0.014639   0.025043
   36  C  3  S    0.082004  -0.211387  -0.181282   0.066336  -0.106390
   37  C  3  X   -0.039762   0.047868   0.022910   0.059376  -0.016464
   38  C  3  Y   -0.010999   0.025840   0.074190  -0.074137  -0.047853
   39  C  3  Z    0.004174  -0.005339  -0.010197   0.002572   0.009580
   40  C  3 XX    0.003250   0.008874   0.009513  -0.001578   0.013000
   41  C  3 YY    0.000983  -0.005655  -0.005262   0.007029  -0.001870
   42  C  3 ZZ   -0.004426   0.008346   0.006545  -0.001876   0.004452
   43  C  3 XY   -0.010573   0.012394  -0.002599   0.000198   0.000979
   44  C  3 XZ    0.000418  -0.001434   0.000206   0.000057  -0.000949
   45  C  3 YZ    0.000005   0.001030   0.001609  -0.001231   0.001008
   46  O  4  S    0.040161  -0.067893  -0.035211   0.013957  -0.065513
   47  O  4  S   -0.093204   0.155292   0.081109  -0.023758   0.136894
   48  O  4  X   -0.002286   0.060890   0.008934   0.057015   0.257535
   49  O  4  Y    0.014451   0.011893   0.110259  -0.186420   0.070622
   50  O  4  Z   -0.001213  -0.004720  -0.013210   0.014384  -0.018618
   51  O  4  S   -0.081548   0.188999   0.099731  -0.080018   0.281265
   52  O  4  X   -0.005898   0.035574   0.009117   0.043015   0.129804
   53  O  4  Y   -0.000060   0.008051   0.057957  -0.096373   0.027887
   54  O  4  Z    0.000304  -0.002937  -0.007117   0.006682  -0.008449
   55  O  4 XX    0.001811  -0.008800   0.001535  -0.007874  -0.021259
   56  O  4 YY   -0.000608  -0.001755  -0.007864   0.014953  -0.004142
   57  O  4 ZZ   -0.000606   0.000976   0.000725   0.002729  -0.000283
   58  O  4 XY   -0.000239  -0.003346  -0.008414   0.008383  -0.007085
   59  O  4 XZ   -0.000163   0.001027   0.000932  -0.000019   0.001899
   60  O  4 YZ    0.000002   0.000548   0.001627  -0.001960   0.000764
   61  H  5  S    0.074619   0.105497  -0.120466  -0.178722  -0.027400
   62  H  5  S    0.009573   0.036117  -0.065291  -0.122996  -0.022695
   63  H  6  S    0.071615   0.132436  -0.037925   0.078161  -0.189921
   64  H  6  S    0.014794   0.047596  -0.020196   0.056969  -0.134516
   65  H  7  S    0.074868  -0.044134   0.170105   0.076750  -0.092513
   66  H  7  S    0.002425  -0.008733   0.084651   0.050118  -0.072416
   67  H  8  S    0.033744  -0.105433  -0.180391   0.150953   0.016462
   68  H  8  S    0.004351  -0.030128  -0.096189   0.106528   0.019182

                     11         12         13         14         15
                   -0.4134    -0.3923    -0.3908    -0.2881    -0.2530
                     A          A          A          A          A   
    1  C  1  S    0.020136  -0.006424   0.005372   0.000091  -0.009463
    2  C  1  S   -0.046343   0.012614  -0.011031  -0.000510   0.016133
    3  C  1  X   -0.217496  -0.110800   0.039993   0.034837   0.070510
    4  C  1  Y   -0.078550   0.270486  -0.107223   0.058825   0.022731
    5  C  1  Z    0.025390   0.009630   0.107179   0.368855  -0.013929
    6  C  1  S   -0.073047   0.031023  -0.025261   0.000552   0.126165
    7  C  1  X   -0.075686  -0.038887   0.015183   0.027440   0.091792
    8  C  1  Y   -0.035838   0.106979  -0.040482   0.042914   0.047560
    9  C  1  Z    0.008800   0.010148   0.058349   0.269599  -0.020486
   10  C  1 XX    0.001134   0.019738  -0.007488   0.002047  -0.006707
   11  C  1 YY    0.006196  -0.019586   0.009970   0.001919   0.005057
   12  C  1 ZZ    0.000482  -0.001986  -0.000833  -0.004066  -0.000891
   13  C  1 XY   -0.007175  -0.010175   0.005238   0.002717   0.004443
   14  C  1 XZ    0.000519   0.001993   0.005952   0.012717  -0.000236
   15  C  1 YZ   -0.000560   0.005483   0.000205   0.007031  -0.001537
   16  C  2  S    0.001539   0.013315  -0.005740   0.000499   0.039457
   17  C  2  S   -0.007272  -0.022888   0.009072  -0.000409  -0.075891
   18  C  2  X    0.169335   0.070616  -0.002022   0.030542  -0.203021
   19  C  2  Y    0.163306  -0.226194   0.147218   0.054562   0.082642
   20  C  2  Z   -0.054856   0.103266   0.144879   0.354100   0.004250
   21  C  2  S    0.028660  -0.059798   0.031297  -0.005482  -0.340048
   22  C  2  X    0.032526   0.035710  -0.006105   0.021124  -0.057765
   23  C  2  Y    0.018480  -0.073607   0.052676   0.035972   0.120155
   24  C  2  Z   -0.014104   0.050544   0.085838   0.237850  -0.011749
   25  C  2 XX   -0.007871   0.016917  -0.007641  -0.002213  -0.001603
   26  C  2 YY    0.012657  -0.021376   0.009100  -0.002358   0.004808
   27  C  2 ZZ   -0.000514   0.001128   0.000334   0.004799   0.002059
   28  C  2 XY   -0.009324  -0.008260   0.002927  -0.003031   0.005597
   29  C  2 XZ    0.001549   0.002255   0.005826  -0.013740  -0.000113
   30  C  2 YZ   -0.000806   0.002173  -0.007780  -0.008982  -0.000627
   31  C  3  S    0.017486  -0.021552   0.010082  -0.000327   0.001366
   32  C  3  S   -0.053300   0.046103  -0.022526   0.000265  -0.014450
   33  C  3  X   -0.237405  -0.186170   0.094880  -0.003790   0.076842
   34  C  3  Y   -0.208317   0.092006  -0.013196  -0.009210  -0.110780
   35  C  3  Z    0.014181   0.152069   0.327490  -0.045943   0.007528
   36  C  3  S    0.003443   0.077479  -0.031481   0.005402   0.002561
   37  C  3  X   -0.021546  -0.067578   0.044442   0.001068  -0.080514
   38  C  3  Y   -0.019179   0.036446   0.006839  -0.003254   0.009665
   39  C  3  Z   -0.009604   0.085620   0.186797  -0.031339   0.004823
   40  C  3 XX   -0.008416  -0.001723   0.001249  -0.003525  -0.035590
   41  C  3 YY    0.017613   0.000116   0.004366   0.000175   0.038077
   42  C  3 ZZ    0.005560  -0.001176  -0.003528   0.003554  -0.000865
   43  C  3 XY   -0.012693   0.000822   0.001003  -0.003439   0.023269
   44  C  3 XZ    0.002090   0.005591   0.012494  -0.025299  -0.000090
   45  C  3 YZ   -0.001723   0.006032   0.012202  -0.003348  -0.006335
   46  O  4  S   -0.061391  -0.015143   0.004053   0.000238  -0.000519
   47  O  4  S    0.122580   0.027663  -0.006961  -0.000096  -0.006301
   48  O  4  X    0.381016   0.032270   0.036997  -0.013153  -0.312600
   49  O  4  Y    0.203217   0.193369  -0.025091  -0.026169   0.497001
   50  O  4  Z   -0.067924   0.155919   0.398075  -0.281838  -0.033689
   51  O  4  S    0.268565   0.083562  -0.026313  -0.004065   0.043518
   52  O  4  X    0.204776   0.009815   0.026014  -0.008848  -0.230074
   53  O  4  Y    0.110554   0.109376  -0.011606  -0.018203   0.348971
   54  O  4  Z   -0.037721   0.096816   0.242599  -0.203453  -0.023160
   55  O  4 XX   -0.023026   0.000710  -0.004455   0.001244   0.012494
   56  O  4 YY   -0.005537  -0.011376   0.002115   0.001705  -0.016431
   57  O  4 ZZ   -0.000556   0.001344   0.005228  -0.002412  -0.002679
   58  O  4 XY   -0.013316  -0.008366  -0.000928   0.001488  -0.009022
   59  O  4 XZ    0.004455  -0.009752  -0.022915   0.011584  -0.000080
   60  O  4 YZ    0.002266  -0.004090  -0.013347   0.007748   0.002232
   61  H  5  S    0.038855  -0.183950   0.083285  -0.000501   0.014077
   62  H  5  S    0.047304  -0.174438   0.081117   0.000034   0.046287
   63  H  6  S    0.079842   0.166627  -0.066614   0.000126  -0.042358
   64  H  6  S    0.082308   0.149898  -0.058767   0.000909  -0.054400
   65  H  7  S    0.113462  -0.183299   0.093654   0.000202   0.026093
   66  H  7  S    0.122956  -0.156815   0.081518   0.001883   0.068610
   67  H  8  S    0.116759  -0.026884   0.021712   0.004316   0.166530
   68  H  8  S    0.129808  -0.043496   0.029882   0.003943   0.255632

                     16         17         18         19         20
                   -0.0609     0.0581     0.1095     0.1145     0.1537
                     A          A          A          A          A   
    1  C  1  S   -0.001115  -0.004048  -0.115372  -0.004208   0.055454
    2  C  1  S    0.003166   0.009275   0.183194   0.001875  -0.084692
    3  C  1  X    0.036794  -0.021984  -0.177779   0.139927  -0.056868
    4  C  1  Y    0.057283  -0.034123  -0.105700  -0.211140   0.165981
    5  C  1  Z    0.364474  -0.223433   0.035202   0.014072  -0.027628
    6  C  1  S    0.008474   0.038359   1.803907   0.004040  -0.862974
    7  C  1  X    0.035692  -0.070217  -0.534277   0.392798  -0.258881
    8  C  1  Y    0.067450  -0.071516  -0.275108  -0.515635   0.428914
    9  C  1  Z    0.427911  -0.459162   0.102901   0.030353  -0.055803
   10  C  1 XX   -0.002136   0.002008  -0.009526   0.011929  -0.010587
   11  C  1 YY   -0.000862   0.004963  -0.004155  -0.010103   0.021672
   12  C  1 ZZ    0.002993  -0.007583  -0.004962  -0.003066   0.000924
   13  C  1 XY   -0.001818   0.005104   0.010874  -0.011488   0.010872
   14  C  1 XZ   -0.010922   0.018332  -0.001576   0.000902   0.000161
   15  C  1 YZ   -0.003761   0.016897  -0.001887   0.002990  -0.004679
   16  C  2  S   -0.000252  -0.002180  -0.003477   0.071124   0.014604
   17  C  2  S   -0.000580   0.001097  -0.011219  -0.110650  -0.021227
   18  C  2  X   -0.021654   0.038572  -0.000602  -0.009854  -0.178777
   19  C  2  Y   -0.031465   0.068486   0.087991  -0.218186   0.086089
   20  C  2  Z   -0.206610   0.408049  -0.023204   0.046246   0.010142
   21  C  2  S    0.007383   0.056399   0.399391  -1.071177  -0.158718
   22  C  2  X   -0.023019   0.071635   0.258848  -0.133947  -0.539422
   23  C  2  Y   -0.036592   0.100374   0.213998  -0.413388   0.306086
   24  C  2  Z   -0.260091   0.649552  -0.069121   0.099519   0.023327
   25  C  2 XX   -0.003871   0.000760   0.003131  -0.018089   0.008635
   26  C  2 YY   -0.001164   0.003438  -0.004406   0.027042  -0.004293
   27  C  2 ZZ    0.004563  -0.004919   0.000400   0.003209  -0.001786
   28  C  2 XY   -0.003819   0.002270   0.003671   0.002449  -0.027506
   29  C  2 XZ   -0.028327  -0.006012  -0.000339   0.001218   0.002839
   30  C  2 YZ    0.000252   0.020244  -0.000265  -0.003742   0.003418
   31  C  3  S   -0.000308   0.000753  -0.042055  -0.032830  -0.109665
   32  C  3  S   -0.000165   0.000740   0.078697   0.035837   0.180738
   33  C  3  X   -0.020076  -0.022852   0.028007  -0.001369  -0.108077
   34  C  3  Y   -0.037629  -0.038838  -0.143785  -0.177973  -0.211369
   35  C  3  Z   -0.339039  -0.400073   0.029301   0.006087   0.021878
   36  C  3  S    0.003917  -0.029315   0.485170   0.615002   1.579285
   37  C  3  X   -0.020595  -0.014288   0.246014  -0.142981  -0.531007
   38  C  3  Y   -0.036940  -0.058048  -0.442596  -0.325967  -0.602897
   39  C  3  Z   -0.313063  -0.568804   0.053338   0.017771   0.091670
   40  C  3 XX    0.002978  -0.001776  -0.016244   0.010122  -0.017213
   41  C  3 YY    0.000595   0.006346   0.006489  -0.010792  -0.012163
   42  C  3 ZZ   -0.004037  -0.004085   0.002931  -0.005989   0.002992
   43  C  3 XY    0.003843  -0.000491  -0.010236   0.015210   0.003696
   44  C  3 XZ    0.027665  -0.002155   0.002752  -0.003409   0.000807
   45  C  3 YZ    0.005978   0.025123  -0.000371   0.000483   0.002166
   46  O  4  S   -0.000315   0.001223   0.014498  -0.006313  -0.004941
   47  O  4  S    0.001235  -0.004279  -0.031684   0.005023  -0.016757
   48  O  4  X    0.017715   0.022383   0.034729  -0.041910   0.027528
   49  O  4  Y    0.040197   0.025331   0.079775   0.009819   0.068135
   50  O  4  Z    0.348679   0.242749  -0.019300   0.011103  -0.006909
   51  O  4  S    0.001472  -0.007988  -0.141619   0.097991   0.212903
   52  O  4  X    0.017373   0.024260   0.022099  -0.067685  -0.043812
   53  O  4  Y    0.037527   0.034220   0.156311   0.050507   0.066308
   54  O  4  Z    0.329587   0.309010  -0.028849   0.010955  -0.001610
   55  O  4 XX    0.000098   0.000115   0.002882  -0.008666  -0.005278
   56  O  4 YY   -0.000437   0.000902   0.000788  -0.001548  -0.010747
   57  O  4 ZZ    0.000771  -0.001885   0.003876  -0.003034  -0.004744
   58  O  4 XY   -0.000162   0.000251  -0.001772   0.000858   0.010894
   59  O  4 XZ   -0.001169   0.001319   0.000050   0.000437  -0.001038
   60  O  4 YZ   -0.002312   0.006444   0.000190  -0.000133   0.000409
   61  H  5  S    0.001769   0.000708  -0.043663  -0.048071   0.108664
   62  H  5  S   -0.002633  -0.018482  -1.184707  -0.801096   1.113580
   63  H  6  S   -0.001881  -0.004713  -0.084449   0.046276  -0.049452
   64  H  6  S   -0.009637  -0.047319  -1.284537   0.829696  -0.260140
   65  H  7  S   -0.003516  -0.005648   0.004097   0.114533  -0.016609
   66  H  7  S   -0.011140  -0.038488  -0.324072   1.321562  -0.253079
   67  H  8  S   -0.001178   0.004778   0.010993  -0.052928  -0.088625
   68  H  8  S   -0.006433   0.026321  -0.732906  -0.826586  -1.560997

                     21         22         23         24         25
                    0.1921     0.2632     0.3162     0.3516     0.5081
                     A          A          A          A          A   
    1  C  1  S   -0.050673   0.019601   0.074349  -0.024461   0.000902
    2  C  1  S    0.077769   0.043741  -0.028807  -0.027688  -0.027275
    3  C  1  X   -0.168312   0.174656  -0.108094   0.012289  -0.099828
    4  C  1  Y    0.235515   0.057909   0.051121   0.215491  -0.122605
    5  C  1  Z   -0.020016  -0.032453   0.007688  -0.037372  -0.625222
    6  C  1  S    0.612672  -1.186895  -2.329405   2.187287  -0.057079
    7  C  1  X   -0.527829  -0.541804  -2.380503   1.207978   0.060932
    8  C  1  Y    1.107110   0.158334  -0.613580   1.693730   0.089690
    9  C  1  Z   -0.120323   0.040731   0.308241  -0.382658   0.610760
   10  C  1 XX   -0.005153  -0.014810   0.036434   0.035476  -0.004073
   11  C  1 YY   -0.002270   0.004545  -0.036020  -0.024596  -0.009282
   12  C  1 ZZ   -0.003220   0.008020   0.008196  -0.007362   0.009757
   13  C  1 XY   -0.010528   0.016763   0.027410  -0.030487  -0.007295
   14  C  1 XZ    0.001790  -0.000075  -0.007656   0.000373  -0.021055
   15  C  1 YZ    0.000984  -0.002092   0.005948   0.006267  -0.021892
   16  C  2  S    0.092444  -0.017353  -0.115722  -0.024922  -0.005048
   17  C  2  S   -0.147726  -0.060493   0.145152   0.091006  -0.007656
   18  C  2  X    0.010636  -0.051178  -0.057723   0.295697  -0.010491
   19  C  2  Y   -0.177266  -0.117615  -0.294161  -0.067982  -0.073902
   20  C  2  Z    0.026973   0.014716   0.051154  -0.017432  -0.439380
   21  C  2  S   -1.579029   1.267489   3.460919  -0.712279   0.058230
   22  C  2  X    0.135950   0.173252  -0.602160   3.158030  -0.095113
   23  C  2  Y   -1.018300  -1.305487  -1.913865   0.377673  -0.007435
   24  C  2  Z    0.136615   0.154539   0.364869  -0.325000   0.214349
   25  C  2 XX    0.024898   0.015269  -0.013480  -0.024210  -0.004602
   26  C  2 YY   -0.012120  -0.032556   0.013818   0.013406   0.007126
   27  C  2 ZZ   -0.000277  -0.002873  -0.003236   0.009183  -0.007632
   28  C  2 XY   -0.008602   0.021405   0.001692   0.028944   0.001064
   29  C  2 XZ   -0.001374  -0.004498   0.000570  -0.001270   0.014253
   30  C  2 YZ    0.002884   0.001808  -0.002431  -0.002467   0.032293
   31  C  3  S   -0.006929  -0.030793   0.074341   0.065786   0.002992
   32  C  3  S    0.033531  -0.002964  -0.026796  -0.062895  -0.025232
   33  C  3  X   -0.146048   0.191062   0.064343   0.271414  -0.036344
   34  C  3  Y    0.168580   0.001391  -0.176595  -0.367321  -0.071454
   35  C  3  Z   -0.009368  -0.009255   0.021879   0.014550  -0.667867
   36  C  3  S   -0.276901   0.784481  -1.746189  -2.021933   0.077731
   37  C  3  X   -0.049346   2.247847   0.585855   0.392924   0.083171
   38  C  3  Y    0.525553   0.701245  -0.347377  -1.855905   0.108196
   39  C  3  Z   -0.059732  -0.215373  -0.030920   0.197730   0.703730
   40  C  3 XX    0.001803  -0.007628   0.027741   0.003904   0.006835
   41  C  3 YY   -0.008321   0.000416  -0.001769   0.013336  -0.008676
   42  C  3 ZZ    0.003169   0.018132  -0.011350  -0.015565   0.001837
   43  C  3 XY    0.009191  -0.014240   0.006876  -0.022655   0.000672
   44  C  3 XZ   -0.000776   0.003887  -0.003703   0.001210   0.004504
   45  C  3 YZ    0.000681   0.002706   0.000160  -0.003652  -0.020475
   46  O  4  S    0.004089   0.106011  -0.036757  -0.032871   0.000951
   47  O  4  S   -0.009429  -0.101849   0.108166  -0.044421   0.008544
   48  O  4  X    0.038261   0.110383  -0.168163  -0.052308  -0.017087
   49  O  4  Y   -0.099635   0.136711   0.024505   0.014153   0.003637
   50  O  4  Z    0.010860  -0.021224   0.005706   0.004025  -0.029031
   51  O  4  S   -0.089404  -2.083800   0.336726   1.008111  -0.062717
   52  O  4  X    0.085905   0.645000  -0.350124  -0.497311   0.013278
   53  O  4  Y   -0.119091   0.557426   0.025573   0.058059   0.005060
   54  O  4  Z    0.009485  -0.098901   0.024897   0.019019  -0.078883
   55  O  4 XX   -0.000691   0.016763   0.003847  -0.027627   0.003199
   56  O  4 YY   -0.001810   0.047934   0.009231  -0.017240   0.007743
   57  O  4 ZZ   -0.000603   0.061282  -0.003674  -0.050979  -0.003763
   58  O  4 XY   -0.004531  -0.032775   0.007081   0.006551   0.004124
   59  O  4 XZ    0.000594   0.006559  -0.002464  -0.001341   0.037394
   60  O  4 YZ    0.000167   0.003507  -0.001900  -0.004702   0.023286
   61  H  5  S   -0.010227   0.051417  -0.129527  -0.036463  -0.006144
   62  H  5  S    0.847759   0.561163   0.196714   1.174834  -0.006258
   63  H  6  S   -0.030499  -0.043913  -0.019846   0.189206  -0.000394
   64  H  6  S   -1.492257   0.122196  -0.846836  -0.301351  -0.010627
   65  H  7  S    0.019046  -0.101878   0.038146   0.031307  -0.005200
   66  H  7  S    1.690477   0.765247   0.842315  -0.184545   0.015591
   67  H  8  S   -0.026824  -0.065744   0.048224   0.043917  -0.013598
   68  H  8  S    0.608588   0.050550   0.158193  -1.199480   0.021563

                     26         27         28         29         30
                    0.5170     0.5585     0.5860     0.6197     0.6362
                     A          A          A          A          A   
    1  C  1  S   -0.009410   0.005951  -0.000322   0.034157   0.001477
    2  C  1  S    0.364159  -0.264049   0.006050   0.356763   0.000215
    3  C  1  X    0.491619  -0.228213   0.070675  -0.221068   0.026407
    4  C  1  Y    0.349535   0.209820   0.112444   0.022191   0.068311
    5  C  1  Z   -0.147771  -0.007126   0.705100   0.003552   0.451446
    6  C  1  S    0.635686   0.078882   0.001660  -0.815159  -0.026365
    7  C  1  X   -0.287234   0.043249  -0.078090   0.646396  -0.053205
    8  C  1  Y   -0.400985  -0.864790  -0.128224   0.089925  -0.125334
    9  C  1  Z    0.135788   0.133072  -0.745619  -0.055723  -0.883681
   10  C  1 XX    0.031963   0.035265   0.006013   0.090436  -0.004294
   11  C  1 YY    0.012737  -0.075009  -0.001288   0.068827   0.002878
   12  C  1 ZZ    0.001414   0.001408  -0.004765  -0.050656   0.003638
   13  C  1 XY    0.020230  -0.005673   0.003811  -0.035951  -0.004777
   14  C  1 XZ   -0.008847  -0.000998   0.031615  -0.009366  -0.031761
   15  C  1 YZ   -0.006027   0.015466  -0.001109  -0.018089  -0.001265
   16  C  2  S    0.072407  -0.004552   0.001492   0.015944  -0.000941
   17  C  2  S    0.181342  -0.389946   0.013681   0.357474  -0.011043
   18  C  2  X   -0.452738  -0.416993   0.019288  -0.169469  -0.109502
   19  C  2  Y    0.070156   0.303324   0.011002   0.066404  -0.130575
   20  C  2  Z   -0.006367   0.014602   0.116941   0.026490  -0.947417
   21  C  2  S   -0.632419   0.228232   0.003995  -0.061800   0.025498
   22  C  2  X    1.179086  -0.260467  -0.022525   0.414024   0.169681
   23  C  2  Y    0.538608  -0.308051  -0.024671  -0.450035   0.194315
   24  C  2  Z   -0.169749   0.037975  -0.242457   0.011146   1.533924
   25  C  2 XX    0.105980  -0.105382  -0.002513   0.023228  -0.005286
   26  C  2 YY    0.042622  -0.010017  -0.003790   0.119820   0.007645
   27  C  2 ZZ   -0.050558   0.016724   0.011449  -0.043069  -0.004933
   28  C  2 XY    0.049562   0.016650  -0.009195  -0.077089  -0.003111
   29  C  2 XZ   -0.022545   0.008820  -0.044566   0.004314  -0.014631
   30  C  2 YZ   -0.019371   0.002240  -0.022506  -0.022201   0.027011
   31  C  3  S   -0.032088  -0.045767  -0.000559  -0.004045   0.000285
   32  C  3  S    0.323742  -0.479974   0.021099   0.041141  -0.016974
   33  C  3  X   -0.199776   0.304452  -0.053107  -0.408501  -0.009197
   34  C  3  Y    0.071539  -0.040441  -0.066403   0.253738   0.007528
   35  C  3  Z   -0.034731  -0.027589  -0.730145   0.007570   0.223223
   36  C  3  S   -0.962162   1.287990  -0.009770  -0.075809  -0.025392
   37  C  3  X   -0.561884  -0.427930   0.097917   1.075614  -0.018596
   38  C  3  Y   -0.357577   0.564585   0.090556  -0.752439  -0.077561
   39  C  3  Z    0.136516  -0.020204   1.022633  -0.003730  -0.669865
   40  C  3 XX   -0.063774  -0.067213   0.002665   0.044420   0.005179
   41  C  3 YY    0.052842  -0.109770  -0.001968  -0.054331  -0.001638
   42  C  3 ZZ    0.016392   0.041624   0.003779   0.011623  -0.005561
   43  C  3 XY    0.003342   0.073554  -0.002930   0.047845   0.010497
   44  C  3 XZ    0.007015  -0.001879   0.003455  -0.009864   0.021779
   45  C  3 YZ   -0.008923   0.014584  -0.023085   0.006480   0.015672
   46  O  4  S   -0.017992   0.025441   0.000697   0.002361  -0.000925
   47  O  4  S   -0.064084  -0.124219  -0.003050   0.002408  -0.013057
   48  O  4  X    0.171260   0.023278  -0.006566  -0.192869  -0.007623
   49  O  4  Y   -0.124619  -0.036954  -0.003559   0.155872  -0.018700
   50  O  4  Z    0.001035   0.003441  -0.102400   0.001728  -0.032946
   51  O  4  S    0.787977  -0.283936  -0.009025  -0.278721   0.024901
   52  O  4  X   -0.243077   0.310419  -0.002841   0.025788   0.000599
   53  O  4  Y   -0.195896   0.035922  -0.003304   0.121593   0.015565
   54  O  4  Z    0.024874  -0.024029  -0.090552  -0.014999   0.135961
   55  O  4 XX    0.017288  -0.036592   0.004837  -0.023241  -0.011803
   56  O  4 YY   -0.043606  -0.020679   0.002814  -0.015545  -0.003445
   57  O  4 ZZ   -0.045679   0.005499  -0.009180   0.016728  -0.001696
   58  O  4 XY    0.003990   0.006337   0.005943  -0.028417  -0.007775
   59  O  4 XZ   -0.002233   0.003342   0.043833   0.005666  -0.031315
   60  O  4 YZ    0.000120   0.003412   0.018649   0.005744   0.010831
   61  H  5  S   -0.071644  -0.373767  -0.005232   0.222800   0.010478
   62  H  5  S   -0.203107  -0.354888  -0.004902   0.152402   0.006107
   63  H  6  S    0.031460   0.138503   0.000654   0.442840   0.011787
   64  H  6  S    0.083615   0.055533  -0.003064   0.241711   0.014606
   65  H  7  S    0.195923   0.116692   0.011653   0.446922   0.000703
   66  H  7  S   -0.224145  -0.067400  -0.001711   0.034771   0.008279
   67  H  8  S    0.212188  -0.347681  -0.000161  -0.333916  -0.012524
   68  H  8  S   -0.130192   0.205814  -0.010880  -0.244557   0.006384

                     31         32         33         34         35
                    0.6626     0.6749     0.8117     0.8263     0.8566
                     A          A          A          A          A   
    1  C  1  S    0.064222  -0.054548  -0.020692   0.003182  -0.001969
    2  C  1  S    0.151975  -0.282616   0.474653  -0.008152   0.251860
    3  C  1  X   -0.322260   0.180690   0.093686   0.433484  -0.201681
    4  C  1  Y   -0.209432   0.125424  -0.080068  -0.902629   0.342055
    5  C  1  Z    0.057595  -0.040849  -0.000226   0.099966  -0.035424
    6  C  1  S   -0.421435   0.989506  -1.869457   0.021884  -0.503898
    7  C  1  X    0.483373  -0.053740  -0.494598  -1.249058   0.371342
    8  C  1  Y    0.289990   0.144385  -0.264101   2.442859  -0.867999
    9  C  1  Z   -0.071428  -0.004285   0.104402  -0.264575   0.102618
   10  C  1 XX    0.078151  -0.116632   0.008023   0.069396  -0.042867
   11  C  1 YY    0.107935  -0.045045  -0.000267  -0.064754   0.066922
   12  C  1 ZZ   -0.066941   0.049799   0.035237   0.005062   0.016247
   13  C  1 XY    0.065468   0.012597  -0.027022  -0.031885   0.039996
   14  C  1 XZ   -0.024629   0.017701   0.006565  -0.002181  -0.000837
   15  C  1 YZ   -0.039590   0.016902   0.008378   0.016096  -0.012650
   16  C  2  S   -0.050149   0.025133   0.025437  -0.013203   0.001495
   17  C  2  S    0.110788  -0.393072   0.514675  -0.250295   0.006637
   18  C  2  X   -0.527987   0.071458   0.323881  -0.269901   0.045157
   19  C  2  Y   -0.159973   0.272546   0.251254   0.215557  -0.045780
   20  C  2  Z    0.104134  -0.025544  -0.061189  -0.007714   0.000328
   21  C  2  S   -0.363559   0.873540  -1.442733   0.838474   0.173267
   22  C  2  X    0.402051   0.763602  -2.082782   1.374019  -0.244583
   23  C  2  Y    0.314631  -0.407516  -1.051752  -1.300660   0.231767
   24  C  2  Z   -0.148975  -0.041500   0.310932   0.077037  -0.012547
   25  C  2 XX   -0.067939   0.017204   0.008404  -0.059967   0.051519
   26  C  2 YY   -0.053556  -0.000212   0.108977   0.032784  -0.047920
   27  C  2 ZZ    0.049528  -0.035320  -0.014035  -0.000576   0.003225
   28  C  2 XY   -0.043585  -0.016991   0.028533   0.005045  -0.010155
   29  C  2 XZ    0.019081  -0.005147  -0.007725   0.005652  -0.004408
   30  C  2 YZ    0.022320  -0.004051  -0.025573  -0.005722   0.010813
   31  C  3  S    0.027693   0.049660  -0.001158  -0.032949  -0.044357
   32  C  3  S   -0.337284  -0.388311   0.469306   0.181769   0.126140
   33  C  3  X   -0.176453  -0.821982   0.142232  -0.148669  -0.067991
   34  C  3  Y   -0.430370  -0.273361  -0.737257  -0.094363  -0.396673
   35  C  3  Z    0.033303   0.078687   0.070797   0.016487   0.044142
   36  C  3  S    0.008896  -0.608971   0.311027  -1.898113  -0.845679
   37  C  3  X   -0.184826   1.192802  -0.414668   0.396372  -0.171257
   38  C  3  Y    0.876502  -0.338668   3.037887  -0.454402   0.402763
   39  C  3  Z   -0.028890  -0.025960  -0.312432   0.027994  -0.029571
   40  C  3 XX    0.021879   0.042184   0.162211  -0.108689  -0.065664
   41  C  3 YY   -0.015006  -0.007891  -0.026449  -0.032330  -0.111115
   42  C  3 ZZ   -0.023690  -0.046110   0.016691   0.072084   0.093810
   43  C  3 XY    0.076069   0.108804   0.044699  -0.036183  -0.127994
   44  C  3 XZ   -0.011774  -0.017294  -0.016013   0.018699   0.025940
   45  C  3 YZ   -0.006705  -0.013068   0.003442   0.016459   0.032905
   46  O  4  S   -0.016416  -0.041033   0.013185  -0.008665  -0.004131
   47  O  4  S    0.016545   0.124677  -0.146464   0.168389   0.392044
   48  O  4  X   -0.069181  -0.303961  -0.222657   0.228852   0.418906
   49  O  4  Y   -0.283669  -0.133328  -0.157969   0.138506   0.315377
   50  O  4  Z    0.030529   0.033885   0.035467  -0.037368  -0.064029
   51  O  4  S   -0.027973  -0.083951  -0.545981   0.153678  -0.353927
   52  O  4  X   -0.015743  -0.302145   0.668285  -0.547443  -0.778866
   53  O  4  Y   -0.090837  -0.064570   0.039201  -0.270311  -0.491893
   54  O  4  Z    0.004984   0.021930  -0.047069   0.068481   0.104528
   55  O  4 XX   -0.069926  -0.081094  -0.169099   0.104510   0.148745
   56  O  4 YY   -0.009584  -0.010714  -0.021414   0.067275   0.194139
   57  O  4 ZZ    0.016095   0.042038  -0.013822   0.045985   0.131761
   58  O  4 XY   -0.059658  -0.110289   0.016838   0.023535   0.060910
   59  O  4 XZ    0.014876   0.021030   0.008852  -0.007228  -0.007586
   60  O  4 YZ    0.006663   0.012946   0.000459  -0.004267  -0.011695
   61  H  5  S    0.432163  -0.188730  -0.194660  -0.354659   0.205933
   62  H  5  S   -0.048946   0.023905   0.217761   1.805947  -0.722642
   63  H  6  S    0.209730  -0.342314  -0.021562   0.346779  -0.292919
   64  H  6  S    0.230691   0.057502   0.077189  -1.632275   0.856596
   65  H  7  S   -0.338955  -0.013598   0.175775  -0.000844  -0.117453
   66  H  7  S   -0.017057  -0.017255   0.605014   0.450708   0.006242
   67  H  8  S    0.142354  -0.052083  -0.337555  -0.185812  -0.588330
   68  H  8  S    0.437940  -0.220102   2.191279   0.213808   1.004130

                     36         37         38         39         40
                    0.8699     0.9058     0.9488     0.9873     1.0587
                     A          A          A          A          A   
    1  C  1  S   -0.005244   0.029287   0.001121  -0.000446   0.015168
    2  C  1  S    0.016144  -0.179460  -1.283933   0.071123   0.599102
    3  C  1  X    0.045193   0.655638   0.152744  -0.010001   0.017770
    4  C  1  Y   -0.030209   0.283917   0.133950  -0.013727   0.106391
    5  C  1  Z    0.001086  -0.105844  -0.041523  -0.062686  -0.016556
    6  C  1  S    0.623256  -0.889864   3.409601  -0.124499  -2.307584
    7  C  1  X    0.454119  -1.692386   0.082184  -0.011690  -0.422184
    8  C  1  Y   -0.392307  -1.079488   0.172645   0.102063  -0.694624
    9  C  1  Z    0.016264   0.328283  -0.021787   0.076024   0.141003
   10  C  1 XX    0.079753  -0.015207  -0.103366  -0.006993   0.024888
   11  C  1 YY   -0.053829   0.074371  -0.011789   0.012162   0.031831
   12  C  1 ZZ   -0.008123  -0.095775  -0.062297   0.005268   0.027282
   13  C  1 XY   -0.009320  -0.154603  -0.009139   0.003059  -0.034742
   14  C  1 XZ   -0.007650   0.015145   0.003834  -0.023353   0.007562
   15  C  1 YZ    0.009354  -0.017330  -0.007558   0.018342   0.002437
   16  C  2  S    0.036182   0.013058  -0.014128  -0.001527  -0.029540
   17  C  2  S   -0.521520  -0.072619  -0.399563  -0.047205  -0.836981
   18  C  2  X    0.083939   0.453483  -0.227950  -0.007187  -0.000217
   19  C  2  Y   -0.958551   0.176275  -0.084813   0.016201  -0.001615
   20  C  2  Z    0.136237  -0.068377   0.038369   0.043238  -0.008015
   21  C  2  S    0.263172   0.125387   1.016804   0.175749   2.451938
   22  C  2  X   -0.634554  -2.574974   1.767696   0.154961  -0.637184
   23  C  2  Y    2.838284  -0.486702   0.118615  -0.053942  -0.325113
   24  C  2  Z   -0.373340   0.302080  -0.184664   0.060839   0.111901
   25  C  2 XX   -0.131001   0.005980  -0.019164  -0.001123  -0.048579
   26  C  2 YY    0.105375   0.003976  -0.017550   0.005502  -0.104828
   27  C  2 ZZ   -0.073590  -0.003632  -0.003708  -0.012076   0.034354
   28  C  2 XY    0.007316   0.097159  -0.089174   0.005116   0.054468
   29  C  2 XZ    0.003597  -0.016282   0.015434  -0.001448  -0.001630
   30  C  2 YZ   -0.033260  -0.011379   0.014782   0.047041   0.017250
   31  C  3  S   -0.016483  -0.017960   0.016760   0.001760   0.011949
   32  C  3  S   -0.309950  -0.822138   1.173232   0.030552   0.397212
   33  C  3  X    0.012409   0.111160  -0.081101   0.016891   0.035476
   34  C  3  Y   -0.153292  -0.140293  -0.118624   0.024452  -0.209046
   35  C  3  Z    0.021443   0.005339   0.016296   0.101356   0.015659
   36  C  3  S    1.584182   2.661963  -3.401447  -0.176227  -1.172258
   37  C  3  X   -0.904185  -0.871968   0.717309  -0.004694  -0.178363
   38  C  3  Y    0.348369   1.299446  -0.468583  -0.194916   1.107540
   39  C  3  Z    0.027494  -0.099917   0.015278  -0.549856  -0.093554
   40  C  3 XX    0.045004  -0.056641   0.113556  -0.001626  -0.094153
   41  C  3 YY   -0.076592  -0.058232   0.009615   0.001366   0.132611
   42  C  3 ZZ    0.005808   0.003063   0.024951   0.002069   0.010892
   43  C  3 XY    0.015222  -0.008266   0.019576   0.004689   0.080984
   44  C  3 XZ   -0.006830   0.005879  -0.008973  -0.030352   0.002528
   45  C  3 YZ    0.009267   0.010788   0.000316   0.010788  -0.018664
   46  O  4  S    0.000262   0.001943  -0.002021  -0.001017  -0.000022
   47  O  4  S   -0.041265   0.203120  -0.169597  -0.012650   0.021891
   48  O  4  X    0.014717  -0.010793  -0.045596  -0.083492  -0.421422
   49  O  4  Y   -0.029372   0.004762  -0.035302  -0.098441   0.582162
   50  O  4  Z   -0.003868  -0.028091   0.002474  -0.933616  -0.010642
   51  O  4  S    0.054811  -0.751904   0.696675   0.077024  -0.006487
   52  O  4  X    0.064279   0.133346  -0.022223   0.095541   0.678116
   53  O  4  Y   -0.075321  -0.141420   0.131955   0.145878  -0.987989
   54  O  4  Z    0.009418   0.040286  -0.009184   1.246110   0.026277
   55  O  4 XX   -0.035137   0.014057  -0.026980   0.000809   0.090715
   56  O  4 YY   -0.016197   0.046727  -0.017216  -0.000495  -0.065328
   57  O  4 ZZ    0.021101   0.124989  -0.129634  -0.017696  -0.023341
   58  O  4 XY   -0.018449   0.008827   0.013972   0.004806  -0.039019
   59  O  4 XZ    0.005941   0.006007  -0.007909   0.022515  -0.006779
   60  O  4 YZ    0.005776   0.010558  -0.015536   0.020578   0.007315
   61  H  5  S   -0.101921   0.505700   0.390795   0.008706   0.025992
   62  H  5  S   -0.082965  -1.073142  -1.020543   0.078009  -0.001785
   63  H  6  S   -0.011325   0.601429   0.238310  -0.038686   0.116754
   64  H  6  S    0.096669  -1.184172  -0.807320   0.041377   0.340544
   65  H  7  S    0.659389  -0.024740   0.006223  -0.006184  -0.157484
   66  H  7  S   -2.555080   0.341228  -0.298266   0.013927  -0.152050
   67  H  8  S   -0.131131  -0.006303  -0.312281  -0.021754   0.128745
   68  H  8  S    0.202653   0.368168   0.835890  -0.035840   0.778897

                     41         42         43         44         45
                    1.0902     1.1508     1.2624     1.3348     1.4379
                     A          A          A          A          A   
    1  C  1  S   -0.003914   0.025132  -0.014384  -0.003776   0.001594
    2  C  1  S    0.369279   1.035886  -0.199696  -0.024624   0.019313
    3  C  1  X    0.334657   0.032270   0.182923   0.062758   0.011394
    4  C  1  Y   -0.159441   0.142851   0.011959   0.015007   0.008603
    5  C  1  Z   -0.006954  -0.025562  -0.038249   0.108534   0.097293
    6  C  1  S    0.940726  -4.193893   3.206022   0.713901  -0.090894
    7  C  1  X   -0.888806  -0.669345   1.644934   0.290937  -0.092334
    8  C  1  Y    2.045291  -1.427061  -1.219408  -0.115149   0.043810
    9  C  1  Z   -0.255877   0.285405   0.023822  -0.008483   0.005789
   10  C  1 XX   -0.067131   0.041469   0.135012  -0.012477  -0.074085
   11  C  1 YY    0.131650   0.036140  -0.048223  -0.079920   0.007443
   12  C  1 ZZ   -0.011663   0.035320  -0.112145   0.088230   0.067735
   13  C  1 XY    0.095861  -0.112493   0.032377  -0.046849  -0.071843
   14  C  1 XZ   -0.000432   0.015488  -0.000012  -0.204445  -0.457914
   15  C  1 YZ   -0.027832   0.011108   0.040325  -0.278079   0.003561
   16  C  2  S    0.001395  -0.044962   0.031907   0.006469  -0.001550
   17  C  2  S   -0.123079  -1.294112   0.765191   0.136560  -0.029504
   18  C  2  X   -0.141837   0.190930   0.026913  -0.003212   0.018358
   19  C  2  Y    0.028547   0.089747  -0.369766  -0.064507   0.029813
   20  C  2  Z    0.003097  -0.025304   0.047025   0.027480   0.157428
   21  C  2  S    0.117604   5.839404  -3.235035  -0.631868   0.143160
   22  C  2  X    2.469350  -0.884900   0.051738   0.171061   0.015295
   23  C  2  Y    0.023982  -0.517303   4.532803   0.884719  -0.081681
   24  C  2  Z   -0.192415   0.156931  -0.652243  -0.184869  -0.081295
   25  C  2 XX   -0.020698   0.005773   0.119082   0.103652   0.027835
   26  C  2 YY   -0.016065  -0.122260  -0.061072  -0.038429   0.143685
   27  C  2 ZZ   -0.000279  -0.000221  -0.043851  -0.067969  -0.171997
   28  C  2 XY    0.036015   0.011272  -0.021870   0.068602   0.071500
   29  C  2 XZ   -0.026519  -0.000407  -0.106508   0.509869   0.106071
   30  C  2 YZ    0.007131   0.023561   0.030148  -0.112616   0.542896
   31  C  3  S    0.002247   0.024873  -0.027542  -0.005136  -0.002550
   32  C  3  S   -0.253058   0.538381  -0.302596  -0.075119  -0.017434
   33  C  3  X    0.272165  -0.179100  -0.147681  -0.020854  -0.004379
   34  C  3  Y    0.209641   0.144168   0.073598   0.015646  -0.012132
   35  C  3  Z   -0.054177  -0.008793   0.018744  -0.030413  -0.109711
   36  C  3  S   -0.435077  -1.428916   2.178650   0.394043  -0.263371
   37  C  3  X   -0.417237   1.378439  -2.066903  -0.422236  -0.118443
   38  C  3  Y   -2.186802  -1.147732  -1.492611  -0.422628  -0.119406
   39  C  3  Z    0.335324   0.046849   0.319291   0.019765   0.202019
   40  C  3 XX    0.036591   0.064409   0.071227  -0.035234   0.028157
   41  C  3 YY   -0.154509  -0.021710  -0.039620   0.055997   0.047660
   42  C  3 ZZ    0.046896  -0.008606  -0.050874  -0.027764  -0.079429
   43  C  3 XY    0.102990  -0.004368  -0.076818  -0.038475   0.034217
   44  C  3 XZ    0.012097  -0.000351   0.070416  -0.412878   0.328868
   45  C  3 YZ    0.008551   0.008476  -0.070953   0.307816   0.182208
   46  O  4  S   -0.007621   0.002415  -0.039375  -0.008242  -0.008887
   47  O  4  S    0.127286   0.149617  -0.365103  -0.050529  -0.149783
   48  O  4  X   -0.294705   0.109158  -0.182591  -0.048513   0.022237
   49  O  4  Y   -0.090825  -0.435401   0.083396   0.014557   0.012952
   50  O  4  Z    0.073243   0.057629  -0.008998   0.041032  -0.021090
   51  O  4  S    0.541098  -0.246637   1.815875   0.364868   0.469151
   52  O  4  X    0.260538  -0.323402  -0.128444  -0.008384  -0.149295
   53  O  4  Y    0.350655   0.930825  -0.262693  -0.029560  -0.092063
   54  O  4  Z   -0.136486  -0.108965   0.030025   0.066239  -0.158790
   55  O  4 XX    0.038894   0.010092  -0.141594  -0.014322  -0.066698
   56  O  4 YY    0.046867   0.106315  -0.077155   0.032704  -0.055547
   57  O  4 ZZ   -0.048535  -0.023569  -0.160911  -0.080504   0.006188
   58  O  4 XY    0.041405   0.047516  -0.039361   0.006765  -0.043795
   59  O  4 XZ   -0.015673  -0.013093   0.005970   0.026191  -0.213328
   60  O  4 YZ   -0.023275  -0.018185  -0.044952   0.188491  -0.129785
   61  H  5  S    0.396975  -0.133727  -0.554150  -0.088599   0.017022
   62  H  5  S    0.729120   0.103973  -0.771788  -0.108139   0.014788
   63  H  6  S   -0.519441   0.308340   0.348848   0.038252  -0.015276
   64  H  6  S   -0.612560   0.617213   0.221266   0.011744  -0.031844
   65  H  7  S   -0.041229  -0.319466  -0.809351  -0.156084   0.012931
   66  H  7  S   -0.024555  -0.470118  -1.401753  -0.285001   0.011443
   67  H  8  S   -0.570054  -0.113128  -0.542551  -0.136257  -0.006299
   68  H  8  S   -0.738734  -0.332165  -0.781364  -0.204461  -0.029375

                     46         47         48         49         50
                    1.5449     1.5450     1.6570     1.7672     1.7938
                     A          A          A          A          A   
    1  C  1  S    0.015243  -0.001280  -0.000715   0.007537  -0.002278
    2  C  1  S    0.338697  -0.029932  -0.006589   0.067126   0.024229
    3  C  1  X    0.105374  -0.006766   0.002469   0.070564   0.122315
    4  C  1  Y   -0.089879  -0.007014  -0.004408   0.052111  -0.066069
    5  C  1  Z   -0.012195  -0.070009  -0.035814  -0.016530   0.002122
    6  C  1  S   -1.200984   0.198492   0.087731   0.839345   0.319917
    7  C  1  X   -1.361189   0.127112   0.046325   0.265314   0.198848
    8  C  1  Y    0.679848  -0.025689   0.018754   0.399980  -0.074597
    9  C  1  Z    0.033785   0.075875   0.083458  -0.088442  -0.013731
   10  C  1 XX    0.004353   0.057991  -0.046904  -0.001017  -0.235759
   11  C  1 YY    0.152841  -0.035745   0.217693  -0.188074   0.215132
   12  C  1 ZZ   -0.155619  -0.021250  -0.169942   0.204246   0.065158
   13  C  1 XY   -0.010979   0.047292   0.034307   0.084105   0.040000
   14  C  1 XZ    0.035786   0.350524  -0.276359   0.016731   0.011445
   15  C  1 YZ   -0.046680  -0.112496   0.779795   0.050864  -0.037943
   16  C  2  S   -0.024421   0.002816   0.000994  -0.000056   0.019537
   17  C  2  S   -0.588019   0.055077   0.020689   0.143271  -0.222425
   18  C  2  X    0.000933  -0.008806  -0.003767   0.107678  -0.266802
   19  C  2  Y    0.141413  -0.022934  -0.010666  -0.130551   0.008925
   20  C  2  Z   -0.032333  -0.034283  -0.030367   0.010311   0.023011
   21  C  2  S    2.411625  -0.244985  -0.092167   0.144685  -0.465116
   22  C  2  X    0.622696   0.012311   0.014643   1.182583   0.327943
   23  C  2  Y   -0.942001   0.159746   0.035164   0.862622   0.103199
   24  C  2  Z    0.102705  -0.116685  -0.212325  -0.220754  -0.042656
   25  C  2 XX    0.087359  -0.001590  -0.019283  -0.166810   0.195720
   26  C  2 YY    0.002303  -0.078706  -0.017655  -0.116299  -0.155208
   27  C  2 ZZ   -0.103798   0.078551   0.036280   0.352233  -0.032851
   28  C  2 XY   -0.018110  -0.033684  -0.026695   0.197539  -0.309720
   29  C  2 XZ   -0.030047  -0.028585  -0.103801   0.027154   0.026336
   30  C  2 YZ   -0.069177  -0.250081  -0.066551   0.067603   0.052692
   31  C  3  S   -0.017339  -0.000205   0.000273   0.014284   0.017085
   32  C  3  S   -0.101672  -0.006121  -0.004426   0.389592  -0.167994
   33  C  3  X    0.045937  -0.015818  -0.002067  -0.238298   0.085413
   34  C  3  Y    0.038822  -0.017201  -0.004175   0.178652   0.070613
   35  C  3  Z   -0.007804  -0.154899  -0.033896  -0.002745  -0.012493
   36  C  3  S   -3.580978   0.141895   0.058349  -2.389521   0.160549
   37  C  3  X   -1.432287  -0.034709   0.013943  -0.625718  -0.266849
   38  C  3  Y   -1.894268   0.016878   0.028106  -1.857662   0.777965
   39  C  3  Z    0.298404   0.100884   0.188565   0.255595  -0.067167
   40  C  3 XX   -0.025490   0.023903  -0.025178  -0.187045   0.323903
   41  C  3 YY    0.075864   0.103995   0.042661  -0.207905  -0.401576
   42  C  3 ZZ   -0.093290  -0.127518  -0.016507   0.457699   0.046446
   43  C  3 XY   -0.202050   0.052525  -0.007656   0.115154  -0.219535
   44  C  3 XZ   -0.013180   0.204114  -0.232933   0.021150   0.004903
   45  C  3 YZ   -0.008384   0.564365   0.245545   0.080939   0.070540
   46  O  4  S   -0.095008   0.001030   0.000965  -0.045253   0.006603
   47  O  4  S   -1.647698   0.025185   0.019855  -0.788347   0.151495
   48  O  4  X    0.213076  -0.017033  -0.001904   0.048392  -0.164627
   49  O  4  Y    0.141745  -0.012910   0.002890  -0.009543   0.193524
   50  O  4  Z   -0.018346  -0.103134   0.041857   0.002519  -0.010905
   51  O  4  S    5.366451  -0.060586  -0.056189   2.953690  -0.438042
   52  O  4  X   -1.580394   0.025674   0.015526  -0.873917   0.351829
   53  O  4  Y   -0.765922  -0.001380  -0.001187  -0.258349  -0.297371
   54  O  4  Z    0.170844  -0.064914  -0.078818   0.072892   0.010731
   55  O  4 XX   -0.510836  -0.042727  -0.006703  -0.381863  -0.395276
   56  O  4 YY   -0.166144   0.003964   0.054611  -0.481130   0.221319
   57  O  4 ZZ   -0.501166   0.056514  -0.034870   0.389831   0.269615
   58  O  4 XY   -0.163150  -0.050268   0.005680   0.210152   0.356038
   59  O  4 XZ    0.025624  -0.466838  -0.136138   0.031232   0.010629
   60  O  4 YZ   -0.010344  -0.010734   0.297674   0.118527  -0.017353
   61  H  5  S    0.194556  -0.022314  -0.006052   0.204123  -0.268842
   62  H  5  S    0.288110  -0.034404  -0.003687   0.049647   0.055557
   63  H  6  S   -0.212787   0.013245   0.002445   0.009081   0.195664
   64  H  6  S   -0.509876   0.027817   0.002392  -0.023985   0.028904
   65  H  7  S    0.037764  -0.009528  -0.008418  -0.128930   0.149725
   66  H  7  S    0.121467  -0.044985  -0.016950  -0.308417  -0.090662
   67  H  8  S   -0.067318  -0.009972   0.000681   0.017404   0.553693
   68  H  8  S   -0.348673  -0.012503  -0.006699  -0.471732   0.131791

                     51         52         53         54         55
                    1.8441     1.9055     1.9870     2.0503     2.1396
                     A          A          A          A          A   
    1  C  1  S   -0.000834   0.023486  -0.017518  -0.015620   0.006902
    2  C  1  S   -0.008538   0.064731  -0.203512  -0.316544   0.062186
    3  C  1  X   -0.006378   0.051405  -0.145724  -0.255539   0.023291
    4  C  1  Y   -0.001341  -0.109450  -0.221055  -0.037401   0.012108
    5  C  1  Z   -0.009016   0.011819   0.047585   0.029087   0.018516
    6  C  1  S   -0.003808  -0.743397  -0.149619  -0.140441  -0.293436
    7  C  1  X    0.008470   0.099696  -0.225790   0.191180   0.029976
    8  C  1  Y   -0.015031  -0.218706   0.320446   0.173395  -0.010419
    9  C  1  Z    0.044984   0.024335  -0.026064  -0.060429   0.202345
   10  C  1 XX    0.029405  -0.323890  -0.071465   0.471873   0.064492
   11  C  1 YY   -0.069953  -0.077021   0.337352  -0.482906  -0.130861
   12  C  1 ZZ    0.039002   0.413590  -0.391814  -0.151393   0.053454
   13  C  1 XY   -0.009746   0.363952   0.188188   0.280629   0.235010
   14  C  1 XZ    0.154789   0.022800  -0.056694  -0.152704   0.465000
   15  C  1 YZ   -0.277710   0.051340  -0.145248   0.032512   0.117322
   16  C  2  S   -0.000834   0.024450  -0.034897  -0.004581  -0.000582
   17  C  2  S   -0.003151   0.181875  -0.452086  -0.340462  -0.074598
   18  C  2  X    0.003076   0.051108   0.081274   0.012006   0.007880
   19  C  2  Y    0.013431  -0.124202  -0.004103   0.251298   0.034713
   20  C  2  Z    0.058420   0.015504  -0.009906  -0.035784  -0.083599
   21  C  2  S    0.003755  -0.785867   1.654618  -0.282712   0.016963
   22  C  2  X   -0.042948  -0.816944   0.543506  -0.819074  -0.269601
   23  C  2  Y   -0.036170  -0.226217  -1.010403  -0.416607  -0.024492
   24  C  2  Z   -0.136089   0.108578   0.111881   0.163193  -0.356746
   25  C  2 XX   -0.038130   0.204462   0.451947   0.062320  -0.019883
   26  C  2 YY    0.112544  -0.621345  -0.267870  -0.001246   0.207510
   27  C  2 ZZ   -0.077083   0.401072  -0.250823  -0.206509  -0.211358
   28  C  2 XY   -0.016224   0.108187   0.086694   0.528558   0.053468
[...]

          ATOMIC WEIGHTS (AMU)

    1     C                12.00000
    2     C                12.00000
    3     C                12.00000
    4     O                15.99491
    5     H                 1.00782
    6     H                 1.00782
    7     H                 1.00782
    8     H                 1.00782

 MODES    1 TO    6 ARE TAKEN AS ROTATIONS AND TRANSLATIONS.

 ANALYZING SYMMETRY OF NORMAL MODES...

     FREQUENCIES IN CM**-1, IR INTENSITIES IN DEBYE**2/AMU-ANGSTROM**2,
     REDUCED MASSES IN AMU.

                            1           2           3           4           5
       FREQUENCY:        10.32        7.37        0.04        0.00        0.06  
        SYMMETRY:         A           A           A           A           A   
    REDUCED MASS:      2.34062     4.70906     6.98036     6.99494     7.03201
    IR INTENSITY:      0.10540     0.08341     0.00000     0.00000     0.00001

  1   C            X -0.01338594  0.02972636  0.09150642  0.09581857 -0.01703725
                   Y -0.01514819 -0.16549613 -0.09009072  0.07402233 -0.06697736
                   Z -0.14676562  0.00974080 -0.03914444  0.05713646  0.11350144
  2   C            X  0.00709806 -0.03363172  0.09131622  0.09597419 -0.01704759
                   Y  0.01463323 -0.06109915 -0.08981163  0.07379031 -0.06661189
                   Z  0.06049868  0.00848941 -0.03924843  0.05721144  0.11464820
  3   C            X -0.00414998  0.02774952  0.09163357  0.09578114 -0.01693994
                   Y -0.00580532  0.05776539 -0.08920999  0.07342530 -0.06640006
                   Z -0.05043437 -0.00730107 -0.03760305  0.05669112  0.11459706
  4   O            X  0.01057185 -0.02504064  0.09145392  0.09591392 -0.01696906
                   Y  0.00880737  0.15572256 -0.08888003  0.07318373 -0.06610742
                   Z  0.13009643 -0.00947067 -0.03760877  0.05672854  0.11561644
  5   H            X -0.03949840  0.12827049  0.09191093  0.09554206 -0.01694998
                   Y -0.05393083 -0.16572747 -0.08989108  0.07395119 -0.06712560
                   Z -0.40395612 -0.00080233 -0.03783661  0.05668803  0.11249930
  6   H            X -0.00533820 -0.01360208  0.09126033  0.09595725 -0.01711871
                   Y -0.00299938 -0.25386289 -0.09052362  0.07428554 -0.06714466
                   Z -0.06947652  0.02117541 -0.04033532  0.05751075  0.11351499
  7   H            X  0.03222292 -0.13209315  0.09090974  0.09624313 -0.01713852
                   Y  0.05294327 -0.05869708 -0.09000091  0.07385370 -0.06646002
                   Z  0.31864397  0.01879859 -0.04053432  0.05765185  0.11565953
  8   H            X -0.02781505  0.12905663  0.09205825  0.09549717 -0.01682576
                   Y -0.03697064  0.05212860 -0.08907496  0.07338538 -0.06653438
                   Z -0.31878697 -0.01751656 -0.03630874  0.05624346  0.11352651

 TRANS. SAYVETZ    X  0.00309639 -0.00188757  5.12527597  5.37125972 -0.95228120
                   Y  0.02375159  0.03531605 -5.01327978  4.12321034 -3.72660992
                   Z -0.03681630  0.00149172 -2.14972774  3.18971511  6.42099723
               TOTAL  0.04392227  0.03539790  7.48483516  7.48502351  7.48489588

   ROT. SAYVETZ    X  5.89532109  1.74586081 -0.00870406  0.00137614  0.03203610
                   Y-12.18475277  1.67260069 -0.10825052  0.02968307 -0.10707186
                   Z  0.32211727 20.53279639  0.08003819 -0.05464500  0.04967758
               TOTAL 13.53982165 20.67465479  0.13490755  0.06220172  0.12230518

                            6           7           8           9          10
       FREQUENCY:         5.75      173.89      320.57      571.15      611.32  
        SYMMETRY:         A           A           A           A           A   
    REDUCED MASS:      2.73908     3.45954     2.69387     4.50948     1.20761
    IR INTENSITY:      0.01356     0.09399     0.22108     0.13587     0.17473

  1   C            X  0.01046914  0.01273330  0.08202686 -0.12557759 -0.01902822
                   Y  0.00490016  0.01492081 -0.07248732 -0.02412702 -0.00203982
                   Z  0.10551534  0.10264540  0.00326016  0.01268592  0.01604077
  2   C            X  0.00810957 -0.01035832 -0.04480324 -0.09005162 -0.02435026
                   Y  0.01678032 -0.01735224  0.13121062 -0.02604556 -0.02021401
                   Z  0.13154228 -0.12606466 -0.01728667  0.02509341 -0.10734334
  3   C            X -0.00841311 -0.00950448 -0.06621961  0.06277482  0.01225320
                   Y -0.01230573 -0.01688045  0.08403102  0.09068316  0.01790626
                   Z -0.11564021 -0.13001770 -0.00243430 -0.02247426  0.02392056
  4   O            X -0.00762635  0.00460863  0.02617201  0.14886107  0.02461779
                   Y -0.01099467  0.01473332 -0.09724990 -0.03633104 -0.00475084
                   Z -0.10398942  0.12003594  0.01021175 -0.00468376 -0.00148069
  5   H            X -0.00166363  0.02359541  0.34142138 -0.22850442 -0.08289360
                   Y -0.02591921  0.02871874 -0.07256956 -0.01259708 -0.07281253
                   Z -0.09961219  0.19407387 -0.01525397  0.10283249 -0.45072275
  6   H            X  0.02483534  0.02442509 -0.02994018 -0.09383679  0.04375405
                   Y  0.02437176  0.03195494 -0.30424277  0.05240859  0.09632750
                   Z  0.28473808  0.22733644  0.04414090 -0.09374048  0.57613473
  7   H            X  0.01965832 -0.01682942 -0.15936124 -0.24442881 -0.01203744
                   Y  0.04692466 -0.02517163  0.13070633 -0.02975908  0.04296846
                   Z  0.33414237 -0.17883633 -0.01468567 -0.03381402  0.31238385
  8   H            X -0.02126453 -0.01950865 -0.22222865  0.02434174  0.03110245
                   Y -0.03630316 -0.03924847  0.08972802  0.08415897  0.06066695
                   Z -0.32044779 -0.32053299  0.01975823 -0.08317424  0.38805621

 TRANS. SAYVETZ    X  0.02173869 -0.00006552  0.00000970  0.00009406  0.00002428
                   Y -0.05421680  0.00013984 -0.00005313 -0.00003604 -0.00001472
                   Z -0.00591627  0.00015150  0.00003154  0.00000395  0.00004670
               TOTAL  0.05871144  0.00021634  0.00006254  0.00010081  0.00005466

   ROT. SAYVETZ    X  2.42721261 -0.04195669  0.04541171  0.00104173 -0.00118148
                   Y 15.37829236  0.04706180  0.03525982  0.01001448 -0.00575642
                   Z -1.45538854  0.01241129  0.00953220  0.00381998  0.00084807
               TOTAL 15.63654031  0.06425898  0.05827814  0.01076881  0.00593729

                           11          12          13          14          15
       FREQUENCY:       928.72      992.18     1022.55     1043.18     1179.99  
        SYMMETRY:         A           A           A           A           A   
    REDUCED MASS:      1.57988     1.33757     1.63370     1.17444     2.01458
    IR INTENSITY:      0.51304     0.85390     0.19259     0.18850     0.86432

  1   C            X  0.09047670 -0.01420400 -0.00346924 -0.00284441 -0.04491151
                   Y -0.05676259 -0.02064535 -0.00473037 -0.00035665  0.02036547
                   Z -0.00081977 -0.14077978 -0.02790812 -0.00622205  0.00150231
  2   C            X  0.05711489  0.00307587  0.01005938 -0.00310976  0.06425408
                   Y -0.04772749  0.00474315  0.01764026 -0.00152230 -0.11640679
                   Z  0.00227917  0.03162335  0.11493928 -0.01982791  0.01098713
  3   C            X -0.07519202  0.00184886 -0.00762456 -0.00468352 -0.08202796
                   Y  0.09438221  0.00325403 -0.01787375 -0.01571280  0.13210200
                   Z -0.00800479  0.02902774 -0.13584402 -0.10675817 -0.01364624
  4   O            X -0.02314098 -0.00030939  0.00169110  0.00180571  0.01658559
                   Y -0.02102789 -0.00082258  0.00440646  0.00333676 -0.01881964
                   Z  0.00451314 -0.00815453  0.03376115  0.02374452  0.00193183
  5   H            X -0.41849108  0.05940467 -0.01588943  0.04554349  0.17425937
                   Y -0.04654010  0.08611021 -0.02035892  0.06452114  0.01603253
                   Z  0.05852990  0.56804784 -0.13083984  0.42441193 -0.01951707
  6   H            X  0.33609202  0.05918161  0.01573192 -0.03352376 -0.12819747
                   Y  0.44440592  0.08799449  0.02442062 -0.04810298 -0.15659799
                   Z -0.10079354  0.60751107  0.15626041 -0.27094645  0.03524039
  7   H            X -0.21904860  0.00382517 -0.04935326  0.05174311  0.56850139
                   Y -0.04446196  0.00184844 -0.07389012  0.08947807 -0.12998136
                   Z  0.03775830  0.01241219 -0.50080908  0.59182961 -0.03190953
  8   H            X -0.19337690 -0.00701393  0.03498760  0.03424179 -0.13140302
                   Y  0.10071659 -0.01229020  0.05899740  0.05061890  0.13989734
                   Z  0.01080446 -0.10446471  0.52078810  0.45921333 -0.00070775

 TRANS. SAYVETZ    X -0.00003953  0.00000066 -0.00000080  0.00000141  0.00000129
                   Y  0.00004026  0.00000843 -0.00000110  0.00000995  0.00003794
                   Z -0.00000903  0.00000960  0.00000716  0.00002755 -0.00000834
               TOTAL  0.00005714  0.00001279  0.00000728  0.00002932  0.00003887

   ROT. SAYVETZ    X -0.00279135  0.00233869  0.00038582  0.00026391  0.00063600
                   Y  0.00522608  0.00531664 -0.00051331 -0.00112259 -0.00304956
                   Z  0.00111410 -0.00064269 -0.00039660  0.00043983  0.00038467
               TOTAL  0.00602866  0.00584373  0.00075475  0.00123422  0.00313883

                           16          17          18          19          20
       FREQUENCY:      1308.34     1409.70     1474.77     1700.57     1804.09  
        SYMMETRY:         A           A           A           A           A   
    REDUCED MASS:      1.47658     1.19613     1.22591     4.01329     9.45534
    IR INTENSITY:      0.05359     0.13712     0.23423     0.05606     4.99545

  1   C            X -0.01241714  0.02516306 -0.01213922 -0.15529213  0.00823997
                   Y -0.10989823  0.00519052 -0.02207990 -0.08605439  0.00745855
                   Z  0.01743706 -0.00319271  0.00463707  0.02790461 -0.00204136
  2   C            X -0.04020624 -0.07567864 -0.09556445  0.16816369 -0.03324248
                   Y  0.11822777 -0.01564837 -0.01801576  0.06943853 -0.01294164
                   Z -0.01430715  0.00975591  0.01100868 -0.02576756  0.00452715
  3   C            X  0.00535312 -0.03385079  0.02443997  0.01455483  0.20392371
                   Y -0.01872794  0.04962641 -0.04296532  0.01284321  0.09003019
                   Z  0.00190604 -0.00378468  0.00288735 -0.00187182 -0.02363125
  4   O            X  0.01008128 -0.02011902  0.03395466 -0.03223544 -0.12992266
                   Y  0.00405244 -0.04949915  0.03703226 -0.01353802 -0.06767600
                   Z -0.00116715  0.00708479 -0.00638585  0.00352546  0.01598623
  5   H            X -0.40836608  0.30365585  0.48694783  0.26827466 -0.01923746
                   Y -0.11142916  0.01861654 -0.01245869 -0.10277462  0.00499303
                   Z  0.05765776 -0.03227508 -0.04566119 -0.01112644  0.00068547
  6   H            X  0.06632739  0.18037258  0.24959088 -0.01212220  0.00038453
                   Y  0.07347287  0.29674157  0.48062338  0.25020117 -0.01014208
                   Z -0.01800537 -0.06148668 -0.09702525 -0.03768873  0.00296007
  7   H            X  0.65400214  0.06751346  0.18534333 -0.14096048  0.08455928
                   Y  0.11644923 -0.02277118 -0.02522970  0.09826432 -0.00878596
                   Z -0.07647314 -0.00133749 -0.01235953 -0.00251703 -0.00556091
  8   H            X  0.09091361  0.77231437 -0.46930861  0.06983867 -0.13415326
                   Y -0.01901741  0.02664696 -0.04167244  0.01404278  0.08131813
                   Z -0.00461547 -0.05043588  0.03572363 -0.00776788 -0.00001741

 TRANS. SAYVETZ    X  0.00003565  0.00001708  0.00005201 -0.00000778 -0.00002943
                   Y -0.00002140  0.00002024 -0.00000167 -0.00004512  0.00000410
                   Z  0.00000240 -0.00001107  0.00000013  0.00000978  0.00000493
               TOTAL  0.00004165  0.00002871  0.00005203  0.00004682  0.00003012

   ROT. SAYVETZ    X  0.00047475 -0.00088976 -0.00217208 -0.00041816  0.00035934
                   Y -0.00331150 -0.00224859  0.00237310  0.00007921 -0.00017306
                   Z -0.00112285 -0.00060103  0.00031906  0.00018901  0.00018025
               TOTAL  0.00352877  0.00249180  0.00323285  0.00046568  0.00043768

                           21          22          23          24
       FREQUENCY:      2899.30     3159.73     3196.02     3246.70  
        SYMMETRY:         A           A           A           A   
    REDUCED MASS:      1.08410     1.05972     1.09419     1.11517
    IR INTENSITY:      2.51952     0.14850     0.06352     0.19196

  1   C            X  0.00095296 -0.04609743 -0.00068157 -0.06020036
                   Y  0.00069190 -0.04607702  0.02060918  0.06970725
                   Z -0.00019376  0.01155470 -0.00301447 -0.00444562
  2   C            X -0.00276928  0.00565419 -0.00375890  0.00191882
                   Y  0.00013794 -0.00618532 -0.08104646  0.01562801
                   Z  0.00021134  0.00038361  0.01242695 -0.00251513
  3   C            X  0.00277571  0.00115425 -0.00277699  0.00042223
                   Y -0.07934443 -0.00100781 -0.00029401  0.00011908
                   Z  0.00913693  0.00004356  0.00020112 -0.00003594
  4   O            X -0.00190817 -0.00053275  0.00085417 -0.00009202
                   Y -0.00029852 -0.00006648  0.00033747 -0.00006126
                   Z  0.00014867  0.00004294 -0.00008505  0.00001129
  5   H            X  0.00624538 -0.01752482  0.00351309 -0.00097921
                   Y -0.01036170  0.77384323 -0.17603198 -0.51355048
                   Z  0.00087809 -0.11492220  0.02617383  0.07752444
  6   H            X -0.00028412  0.49659314  0.06526427  0.69054805
                   Y  0.00640550 -0.25998759 -0.03310766 -0.33881414
                   Z -0.00096689 -0.01083344 -0.00153519 -0.01862662
  7   H            X -0.00006532 -0.00032554  0.00368383 -0.00225658
                   Y -0.00674655  0.11011555  0.92238395 -0.16003503
                   Z  0.00088358 -0.01640904 -0.13737440  0.02401056
  8   H            X  0.01296499 -0.00246788 -0.00007736  0.00307152
                   Y  0.95028346  0.01135903  0.00451584 -0.00411350
                   Z -0.11215743 -0.00118685 -0.00038446  0.00022108

 TRANS. SAYVETZ    X  0.00000015  0.00001246  0.00000304  0.00000246
                   Y -0.00001687 -0.00000342 -0.00000100  0.00000491
                   Z -0.00000190 -0.00000398 -0.00000257  0.00000042
               TOTAL  0.00001697  0.00001352  0.00000410  0.00000551

   ROT. SAYVETZ    X  0.00079326  0.00011161  0.00074066  0.00018548
                   Y  0.00001703  0.00036021  0.00002822  0.00040795
                   Z  0.00023971 -0.00017839  0.00008248 -0.00009964
               TOTAL  0.00082886  0.00041717  0.00074578  0.00045908

 REFERENCE ON SAYVETZ CONDITIONS - A. SAYVETZ, J.CHEM.PHYS., 7, 383-389(1939).

 NOTE - THE MODES J,K ARE ORTHONORMALIZED ACCORDING TO
 SUM ON I   M(I) * (X(I,J)*X(I,K) + Y(I,J)*Y(I,K) + Z(I,J)*Z(I,K)) = DELTA(J,K)

  MODE FREQ(CM**-1)  SYMMETRY  RED. MASS  IR INTENS.
     1      10.320    A        2.340621    0.105402
     2       7.374    A        4.709058    0.083413
     3       0.037    A        6.980364    0.000002
     4       0.004    A        6.994942    0.000001
     5       0.060    A        7.032011    0.000005
     6       5.754    A        2.739083    0.013562
     7     173.888    A        3.459540    0.093989
     8     320.569    A        2.693866    0.221084
     9     571.153    A        4.509477    0.135869
    10     611.318    A        1.207612    0.174730
    11     928.717    A        1.579883    0.513037
    12     992.178    A        1.337568    0.853896
    13    1022.554    A        1.633700    0.192594
    14    1043.183    A        1.174444    0.188505
    15    1179.990    A        2.014577    0.864320
    16    1308.338    A        1.476585    0.053592
    17    1409.699    A        1.196125    0.137119
    18    1474.772    A        1.225906    0.234231
    19    1700.570    A        4.013288    0.056056
    20    1804.094    A        9.455338    4.995453
    21    2899.303    A        1.084103    2.519523
    22    3159.734    A        1.059716    0.148501
    23    3196.020    A        1.094187    0.063524
    24    3246.698    A        1.115175    0.191957

     -------------------------------
     THERMOCHEMISTRY AT T=  298.15 K
     -------------------------------

 USING IDEAL GAS, RIGID ROTOR, HARMONIC NORMAL MODE APPROXIMATIONS.
 P=  1.01325E+05 PASCAL.
 ALL FREQUENCIES ARE SCALED BY   1.00000
 THE MOMENTS OF INERTIA ARE (IN AMU*BOHR**2)
             37.68611           390.02082           427.60740
 THE ROTATIONAL SYMMETRY NUMBER IS  1.0
 THE ROTATIONAL CONSTANTS ARE (IN GHZ)
     47.84490     4.62306     4.21669
      7 -     24 VIBRATIONAL MODES ARE USED IN THERMOCHEMISTRY.
 THE HARMONIC ZERO POINT ENERGY IS (SCALED BY   1.000)
        0.061608 HARTREE/MOLECULE    13521.388879 CM**-1/MOLECULE 
       38.659630 KCAL/MOL              161.751890 KJ/MOL

               Q               LN Q
 ELEC.     1.00000E+00       0.000000
 TRANS.    1.64832E+07      16.617850
 ROT.      2.83791E+04      10.253408
 VIB.      2.62639E+00       0.965610
 TOT.      1.22857E+12      27.836869

              E         H         G         CV        CP        S
           KJ/MOL    KJ/MOL    KJ/MOL   J/MOL-K   J/MOL-K   J/MOL-K
 ELEC.      0.000     0.000     0.000     0.000     0.000     0.000
 TRANS.     3.718     6.197   -41.195    12.472    20.786   158.954
 ROT.       3.718     3.718   -25.418    12.472    12.472    97.723
 VIB.     165.755   165.755   159.358    32.434    32.434    21.454
 TOTAL    173.192   175.671    92.746    57.378    65.692   278.130
 VIB. THERMAL CORRECTION E(T)-E(0) = H(T)-H(0) =      4002.851 J/MOL

              E         H         G         CV        CP        S
         KCAL/MOL  KCAL/MOL  KCAL/MOL CAL/MOL-K CAL/MOL-K CAL/MOL-K
 ELEC.      0.000     0.000     0.000     0.000     0.000     0.000
 TRANS.     0.889     1.481    -9.846     2.981     4.968    37.991
 ROT.       0.889     0.889    -6.075     2.981     2.981    23.356
 VIB.      39.616    39.616    38.088     7.752     7.752     5.128
 TOTAL     41.394    41.986    22.167    13.714    15.701    66.475
 VIB. THERMAL CORRECTION E(T)-E(0) = H(T)-H(0) =       956.704 CAL/MOL
 ......END OF NORMAL COORDINATE ANALYSIS......
 STEP CPU TIME =     0.01 TOTAL CPU TIME =        784.1 (     13.1 MIN)
 TOTAL WALL CLOCK TIME=        791.7 SECONDS, CPU UTILIZATION IS    99.04%
               1080583  WORDS OF DYNAMIC MEMORY USED
 EXECUTION OF GAMESS TERMINATED NORMALLY Tue Oct  4 03:43:54 2022
 DDI: 263640 bytes (0.3 MB / 0 MWords) used by master data server.

 ----------------------------------------
 CPU timing information for all processes
 ========================================
 0: 779.186 + 4.921 = 784.108
 ----------------------------------------
 ddikick.x: exited gracefully.
----- accounting info -----
Files used on the master node chemcompute-node-0.novalocal were:
-rw-r--r--. 1 chemcomp chemcomp      985 Oct  4 03:30 /scratch/120553/460155.F05
-rw-rw-r--. 1 chemcomp chemcomp 70451200 Oct  4 03:43 /scratch/120553/460155.F10
-rw-rw-r--. 1 chemcomp chemcomp  4143136 Oct  4 03:43 /scratch/120553/460155.F22
Tue Oct  4 03:43:57 UTC 2022
0.097u 0.038s 13:15.08 0.0%	0+0k 8+208io 0pf+0w
Finishing Up...
Looking for IR data...
Looking for Raman data...
vibramans not found
Looking for thermodynamics data...
Looking for UV-Vis data...
chemcompute.org
{'UTCtimestamp': '2022-10-04T03:43:59.575347', 'cluster': 'jetstream2', 'clusterJobNumber': '120553', 'status': 'COMPLETE', 'nodeList': 'chemcompute-node-0'}
120553
